<?xml version="1.0"?>
<VTKFile type="UnstructuredGrid"  version="0.1"  >
<UnstructuredGrid>
<Piece  NumberOfPoints="10687" NumberOfCells="56126">
<Points>
<DataArray  type="Float64"  NumberOfComponents="3"  format="ascii">0.4706328524869254 0.3352322234089791 0.8777449593304169  0.4706328524869254 0.3352322234089791 0.6878592759156478  0.1034871134917706 0.5074314354846614 0.8066156942878907  0.1034871134917706 0.5074314354846614 0.6093728192209301  0.1551675959173425 0.1700780340113893 0.875250033073221  0.1551675959173425 0.1700780340113893 0.6887864874752977  0.6669562922359631 0.1602970868684059 0.4523658258931287  0.6669562922359631 0.1602970868684059 0.2552523885148201  0.8003443519139738 0.2822561447883644 0.5930006311386973  0.8003443519139738 0.2822561447883644 0.4029796476326826  0.3457009019302847 0.8221886364192141 0.5097404498597131  0.3457009019302847 0.8221886364192141 0.3235132646209543  0.6237009005988635 0.4378266539505478 0.2728752701731033  0.6237009005988635 0.4378266539505478 0.07525023687650988  0.4405325061441246 0.3736500425446249 0.5430824476200887  0.4405325061441246 0.3736500425446249 0.3511080030756988  0.4729985941354655 0.6549215713426292 0.4263803603294994  0.4729985941354655 0.6549215713426292 0.2440419383971545  0.8497539722219983 0.8932368319026851 0.9216855557035772  0.8497539722219983 0.8932368319026851 0.7221440259988454  0.8256793108961468 0.7200648726620793 0.7639372733217841  0.8256793108961468 0.7200648726620793 0.5739950021841588  0.1069186229833285 0.6471377132733304 0.4117225740732061  0.1069186229833285 0.6471377132733304 0.2311622835575079  0.3822781833640896 0.5574912839699678 0.9533440625467628  0.3822781833640896 0.5574912839699678 0.7623135689543359  0.8147419951305515 0.2077660562437428 0.3196503739819442  0.8147419951305515 0.2077660562437428 0.1385979793947633  0.1972576198188177 0.3008180057196627 0.3694160647549479  0.1972576198188177 0.3008180057196627 0.1758758540439013  0.8360164207720789 0.8411691785045133 0.5662074074775733  0.8360164207720789 0.8411691785045133 0.3702535016975271  0.5870354117953491 0.5660469816113 0.5884142613115635  0.5870354117953491 0.5660469816113 0.3889691321045217  0.4682471314611975 0.1448489912149886 0.8421094343015803  0.4682471314611975 0.1448489912149886 0.6438471092958917  0.6940717249633667 0.4607923761098732 0.8373193364331413  0.6940717249633667 0.4607923761098732 0.6563146310164385  0.785995235512619 0.6118189069427523 0.2338427776004194  0.785995235512619 0.6118189069427523 0.03467503973286271  0.4711608296195493 0.8399200905079074 0.7767650594383581  0.4711608296195493 0.8399200905079074 0.5818925919184107  0.1801403835158435 0.888221913884045 0.990408893193204  0.1801403835158435 0.888221913884045 0.79844056802017  0.379674926453424 0.8536855703585062 0.2351921571476348  0.379674926453424 0.8536855703585062 0.0367335871861858  0.1197640691976752 0.7241686785603229 0.701197367823817  0.1197640691976752 0.7241686785603229 0.5081196252826443  0.6823045980785605 0.2275345134410378 0.8110132454137582  0.6823045980785605 0.2275345134410378 0.61986059688904  0.2881707672229488 0.1093262749891311 0.3184398658161565  0.2881707672229488 0.1093262749891311 0.1241046849491645  0.7774679126000535 0.7954105823147033 0.3480073147218777  0.7774679126000535 0.7954105823147033 0.1599755114172284  0.8821149028858677 0.5311745557285129 0.5925105119985196  0.8821149028858677 0.5311745557285129 0.4060578796192374  0.3071209529928384 0.1043048214911635 0.9617263867358654  0.3071209529928384 0.1043048214911635 0.7749365953088263  0.3525143821419499 0.3169473982787399 0.2291485270263934  0.3525143821419499 0.3169473982787399 0.04052806879835649  0.2181911936865633 0.3467435072607196 0.7841054602954397  0.2181911936865633 0.3467435072607196 0.588251967758406  0.2052926494692249 0.6881980115813477 0.9811716612959469  0.2052926494692249 0.6881980115813477 0.7955537425052899  0.4419455308138652 0.5869557230442789 0.7175835947230391  0.4419455308138652 0.5869557230442789 0.5256597562153662  0.294665186602361 0.6297354240358883 0.3515875299946371  0.294665186602361 0.6297354240358883 0.1633028021985535  0.3227169748663333 0.5398714276283029 0.5639795035497261  0.3227169748663333 0.5398714276283029 0.378333216495109  0.1114385766623374 0.8685745816913473 0.3040524992463673  0.1114385766623374 0.8685745816913473 0.10713307046516  0.5768519201823341 0.6856015444446069 0.9383266886417795  0.5768519201823341 0.6856015444446069 0.7525040529472974  0.387087532636763 0.1213997847509466 0.6253730097825071  0.387087532636763 0.1213997847509466 0.438190523979103  0.6062288422037078 0.262839894910132 0.99341968440379  0.6062288422037078 0.262839894910132 0.8118440972228763  0.1052974916493386 0.8900083661633854 0.5164136557566272  0.1052974916493386 0.8900083661633854 0.3321874517919751  0.5805007131695868 0.7658611554335449 0.5679064974425381  0.5805007131695868 0.7658611554335449 0.3867126908397862  0.8516646744159143 0.2821683149545192 0.9409572112451419  0.8516646744159143 0.2821683149545192 0.7455714212800446  0.52404992415023 0.2780871128774421 0.3851725541416735  0.52404992415023 0.2780871128774421 0.1971507048530348  0.2116566820145898 0.1397944573048898 0.5132462827415352  0.2116566820145898 0.1397944573048898 0.3173628533488575  0.8787093807723328 0.5359917439672732 0.3883784795565568  0.8787093807723328 0.5359917439672732 0.198701352242609  0.6144164698667431 0.7844219822337941 0.1881254131007406  0.6144164698667431 0.7844219822337941 0.006043874964533597  0.4594895236684425 0.6108427328851304 0.2214183277823102  0.4594895236684425 0.6108427328851304 0.02582458776000437  0.5846912998959422 0.1912564379102963 0.6442011846733058  0.5846912998959422 0.1912564379102963 0.4471094609561432  0.4376617605251478 0.8509256947182723 0.985861774998762  0.4376617605251478 0.8509256947182723 0.7867071047808379  0.6502976040252852 0.6086550516104462 0.3753306749972641  0.6502976040252852 0.6086550516104462 0.1854211248996367  0.8876636186541877 0.5622378810098793 0.9503971839153895  0.8876636186541877 0.5622378810098793 0.7599168786902926  0.2133557149328592 0.4585472573307414 0.2413300010571164  0.2133557149328592 0.4585472573307414 0.05295022537550523  0.6438645437873705 0.9022569832392023 0.986223980555191  0.6438645437873705 0.9022569832392023 0.7989562306065728  0.1854927726319018 0.4330096691290367 0.9853296730958092  0.1854927726319018 0.4330096691290367 0.8023316876953659  0.09695224934892709 0.6455243829394482 0.2269514078741489  0.09695224934892709 0.6455243829394482 0.03525945886312525  0.1150316721987143 0.3549716681973091 0.5871978999251575  0.1150316721987143 0.3549716681973091 0.3879609486143939  0.5757350151836823 0.4665368634303342 0.996037568322176  0.5757350151836823 0.4665368634303342 0.804635477636761  0.1011258347983123 0.1590597171257113 0.2378999832054884  0.1011258347983123 0.1590597171257113 0.04165775047141082  0.4937961521621999 0.1130252749494917 0.2121370539057493  0.4937961521621999 0.1130252749494917 0.01584979746588065  0.2796333239519485 0.8321790983111345 0.8313735371451578  0.2796333239519485 0.8321790983111345 0.6411738078935798  0.6670817002427245 0.3996340023285802 0.6661703992759127  0.6670817002427245 0.3996340023285802 0.4807705913442979  0.5139914323799297 0.8842491428733793 0.4342752682662568  0.5139914323799297 0.8842491428733793 0.2344875384254968  0.9036215136064625 0.9017721207810987 0.2156155030609907  0.9036215136064625 0.9017721207810987 0.03338198835358491  0.8850331270919829 0.1070874232410335 0.7378892180036393  0.8850331270919829 0.1070874232410335 0.5394112991597327  0.7061591093009325 0.3810690626819092 0.4399816354879634  0.7061591093009325 0.3810690626819092 0.2520717392923854  0.7617678714839212 0.7144331728793709 0.9511940286569709  0.7617678714839212 0.7144331728793709 0.7703826691334883  0.8530869996603592 0.4103543703954326 0.2227979277895693  0.8530869996603592 0.4103543703954326 0.02673489421551535  0.7753772064547346 0.1088590128627752 0.9731649464759533  0.7753772064547346 0.1088590128627752 0.7861020919010442  0.1246681246167302 0.1310148493942221 0.6883620921281157  0.1246681246167302 0.1310148493942221 0.4982651613712048  0.270755122579547 0.6310956435431518 0.808149283268402  0.270755122579547 0.6310956435431518 0.616041978421889  0.8779458547471886 0.4546397739551304 0.7816436885678562  0.8779458547471886 0.4546397739551304 0.5940258508268208  0.4166014913878097 0.4652268640852085 0.3494357886739298  0.4166014913878097 0.4652268640852085 0.1542598315164533  0.6786285008212247 0.8743089140879927 0.7095600510588536  0.6786285008212247 0.8743089140879927 0.5096335519371944  0.6529346925218172 0.235424933900179 0.2277364041219512  0.6529346925218172 0.235424933900179 0.02872325435473627  0.4578239511648054 0.1001606962784116 0.405464599085457  0.4578239511648054 0.1001606962784116 0.2213989182469846  0.8752393003034642 0.1150781083147004 0.5276814692699038  0.8752393003034642 0.1150781083147004 0.3331964711550469  0.1152155686924174 0.5576195367071964 0.5907457404339491  0.1152155686924174 0.5576195367071964 0.3963809359334431  0.6202460967293077 0.6688509375969818 0.7440618626186406  0.6202460967293077 0.6688509375969818 0.5589240766271628  0.09301971027453279 0.8788464434908526 0.8057129855623278  0.09301971027453279 0.8788464434908526 0.6215093682763838  0.7557499875356086 0.6629419514118857 0.5343321026713651  0.7557499875356086 0.6629419514118857 0.3355998821193185  0 0 1  0 0 0  0 1 1  0 1 0  1 0 0  1 0 1  1 1 1  1 1 0  0.5181042733406177 0.3352322234089791 0.7005792047969526  0.5528557653130052 0.3352322234089791 0.73533069676934  0.56557569419431 0.3352322234089791 0.7828021176230323  0.5528557653130052 0.3352322234089791 0.8302735384767246  0.5181042733406178 0.3352322234089791 0.8650250304491121  0.1462773515659456 0.5074314354846614 0.6191394118289615  0.1805924582016996 0.5074314354846614 0.6465047962076372  0.1996359056826566 0.5074314354846614 0.6860489223663458  0.19963590568
[...]
<PointData  Vectors="f_11034-0"> 
<DataArray  type="Float64"  Name="f_11034-0"  NumberOfComponents="3" format="ascii">5.8460728014876369e-05 1.6870286350549126e-02 -2.5051898012762130e-03  -7.7189968140899286e-05 -1.0096657172855263e-02 -1.2891201605377191e-03  1.4591927898855064e-03 1.7646143681110796e-02 9.7644282436398474e-04  -4.4168369343508356e-04 -5.3688276007357021e-03 -4.5237165839406698e-03  6.2243894917576859e-05 1.8031790715755867e-02 -1.6288372178642813e-03  8.7435902608365749e-04 -1.8833571254639715e-03 2.3373628129888988e-03  6.8648815231127857e-04 8.9577084955497904e-03 -1.0459405296694700e-02  3.8901740303848016e-04 -1.3821141291512731e-02 -1.2725803238843203e-02  -5.3647012173056567e-04 1.2278094489682522e-02 -2.3361521385344970e-03  -5.6196538884930127e-04 -1.2694877794187548e-02 -2.2860641581824571e-03  -6.9231189409460991e-04 1.2620517596226956e-02 5.5221296549859671e-03  4.4405314821540417e-04 -1.2768066858084922e-02 4.1155903102806203e-03  9.2683842655724832e-04 6.0795894011122925e-03 5.8915566135287411e-04  -6.8782223385785543e-04 -1.7955290110136048e-02 -1.2688532450104543e-03  5.6850237467399086e-04 1.5714026821026787e-02 -3.3461139519619211e-03  -1.9500867900794278e-03 -4.7085625256970262e-03 -6.1876832145914724e-03  -6.2664982679136124e-04 1.0372317406436050e-02 5.4812333322325430e-03  -1.8987721650129028e-04 -1.1100050489324288e-02 7.4293765197899694e-03  -5.8747380428463178e-05 1.8384771899780293e-02 4.1489835364568080e-03  9.1615988691273623e-04 -7.8186963835937765e-03 5.3974159981344345e-03  -1.1408945793337628e-04 9.4680895038700176e-03 3.1800489744137754e-03  1.2785114990251571e-03 -4.4306633732415562e-03 2.6541864584100077e-03  2.2330651272340333e-04 2.5540429557632032e-03 9.5528339872720160e-03  -4.7861484821491311e-04 -4.5950426459860118e-03 2.3941733181234871e-03  -8.0316134188044967e-04 1.4844289851857128e-02 -1.1734761788567691e-03  -6.4046467900068466e-05 -7.0529868175605590e-03 -5.5487661251230431e-03  7.8512588757412912e-04 3.5588704653761239e-03 -2.2813155892003659e-03  2.3714065890367652e-04 -1.6812942225676881e-02 -5.3662832973463363e-03  1.2753766779674493e-03 6.6107981904662246e-03 -1.9765000812413448e-03  1.0489706969271338e-03 -1.7025013107265279e-02 -2.6456669119879796e-03  1.7405754636841661e-04 1.1417141931382555e-02 8.4306510526788239e-03  5.6068323256270962e-04 -1.5062957454282948e-02 9.3297123573930062e-03  7.6250215383061998e-04 1.1500328687207632e-02 -6.2528370760452350e-03  -5.6074518038561592e-04 -1.0446921598420230e-02 -4.2143859756234954e-03  -9.2703871849587134e-04 1.8237791991319467e-02 -4.8930384821018807e-03  1.5244851088407117e-03 -8.2838088488490363e-03 -4.8799738966196406e-03  -6.5053621397755947e-04 1.6347048841585814e-02 -1.2173282914211298e-03  4.3478323705323137e-04 -1.1296422148942434e-03 5.4484530957298258e-03  1.7051896012076821e-03 5.4680099372359306e-03 4.3278969327414634e-03  -9.2027292041983407e-04 -1.4931224081875116e-02 1.4947486550550182e-03  5.5253415529726195e-04 8.3472824404874826e-03 4.4438185576064328e-03  -1.6085172656854258e-03 -1.1047581917049713e-02 7.9185636706835677e-03  -2.8658806199222358e-04 1.4225458858629504e-02 4.3906888936519738e-03  -1.3861231119431622e-03 -4.0272283156548797e-03 9.1853795202420322e-03  -3.5483401066778713e-04 6.9077768423204981e-03 4.9282904304459307e-03  3.0215221896128826e-04 -1.3114085638164488e-02 4.3702943922410021e-03  -5.2897759902857081e-04 1.4781897139503236e-02 2.0419718880403956e-03  -1.3923394681491187e-04 -1.1620545803229167e-02 6.0040143325519046e-03  2.6754131942995766e-03 1.2208934622879362e-02 -5.9341379360674891e-03  1.9853778866650929e-03 -5.5920146204078156e-03 -4.6662114801950816e-03  8.0989876958751316e-04 9.3117046131931999e-03 -6.0833134044245875e-03  1.1665626487922954e-04 -1.8789065839432212e-02 -2.4534826678835292e-03  -1.7870305042631015e-03 1.0749946978150216e-03 8.0560274993477336e-03  3.3281955273881456e-04 -1.6693854470979465e-02 6.4322950449339630e-03  3.7326211816087769e-05 7.4134468777504372e-03 5.9592924551803463e-03  1.1201929393052841e-03 -9.8736384481599489e-03 -2.7282152328206351e-03  1.5598691074660405e-04 1.3864614859606160e-02 -1.8647462982078319e-03  -1.9660735945869790e-04 -1.0834152649223959e-02 -2.5384115825090817e-03  -1.5578427643098414e-03 8.1484856366127924e-03 -4.5462662366321108e-03  3.7814121638428124e-05 -1.6994546713626841e-02 -3.4043803463013867e-03  3.5677630711551141e-04 1.5386976750140672e-02 -8.0745399752538694e-03  2.9230937050475452e-04 -8.8552078846249830e-03 -3.8325213933149776e-03  -1.6194975736543877e-04 1.4670082202986236e-02 2.8034263580713269e-03  -6.5153992105451523e-04 -2.3837656244942338e-04 5.2715987682438303e-03  -1.0644742997487658e-04 1.3141600871523319e-02 2.9952495224170439e-04  9.8154479926997095e-04 -8.4718701118740459e-03 1.2775874984853894e-03  -8.9035438160196595e-04 9.1364516697256485e-03 7.4062472205970020e-03  7.3233865672452060e-04 -1.8052974791490324e-02 2.7200299223068248e-03  -1.3256458965851569e-03 9.7346954339767033e-03 -5.2261359320190069e-03  -1.6022105121607441e-03 -7.0950583987185777e-03 -1.9737097601549270e-03  3.0845000019217412e-04 6.5379153651643806e-03 1.5759570182595228e-03  -2.7047461595101517e-04 -1.8126023825515716e-02 3.6252241881525502e-03  -2.6842176738680544e-04 1.5754121723511667e-02 1.5056661223861701e-03  -3.0491930128515298e-04 -2.0695328690622425e-03 3.8046759687058425e-03  -5.7428107052484860e-04 1.0898907344923490e-02 -4.4247813358634386e-03  -3.8162036814698376e-04 -8.2826902993679979e-03 -2.4920931118900085e-03  -9.5437456382622076e-04 7.6079826549080628e-03 -2.5747051846981600e-03  6.4453066662913973e-04 -4.0033927844788514e-03 -2.1499926583402888e-03  7.6768628491258773e-04 8.6799115959072248e-03 5.5735991872142478e-03  2.3868076862145648e-04 -9.3158239398228784e-03 5.9489818120605888e-03  1.2247478843929887e-04 6.8486610494474971e-03 8.0725899735060169e-03  -1.2630151211708166e-03 -1.0676639983528913e-02 6.7032429511472728e-03  6.6744888106254189e-04 1.6924268222799473e-02 -4.5028691069589075e-03  -2.6453868915790124e-04 -6.6084227608536198e-03 -2.0185312211348843e-03  1.6122918706355707e-03 1.1169020196510534e-02 -3.2539354147909216e-03  -6.7042305528431810e-04 -1.5951374638406648e-02 -2.6084967615560959e-04  9.8751712086632190e-05 1.0654186229055417e-02 -2.0859588337789809e-03  -8.9466791793295385e-04 -8.2789539406537532e-03 -2.6005649072788342e-03  1.4090582546496654e-03 2.4727539802282396e-03 -1.3058657042749999e-03  -5.7304558035219306e-04 -1.0150518157461753e-02 -2.8741564418509932e-04  8.7389071542167752e-04 4.0648332806157107e-03 7.0346419571198152e-03  5.7182307397890509e-04 -7.1375798327988479e-03 4.5264660127979257e-03  -1.2848036678448221e-03 2.5995820222103586e-03 -4.2971296648586157e-04  7.4769744224003715e-05 -1.3345866525482126e-02 2.6030445706700825e-03  -9.2180748046141096e-04 1.0772908674211042e-02 -7.5166064003197907e-03  -7.6810913648847352e-04 -6.4918036249514977e-03 -4.3413787059348140e-03  8.6751546005720806e-04 1.1749680655765057e-02 4.9005263100077448e-03  3.3632502352657213e-04 -2.9502937523699121e-03 7.3112070503524359e-03  -2.1213302649044203e-03 3.0341998747533661e-03 1.3344813843828374e-03  -7.3180337763576484e-04 -1.6862159540789311e-02 2.0193873963232642e-03  -8.0384864465301003e-04 1.4833251559580332e-02 7.0988698092587456e-04  -4.0126910923348906e-04 -1.5873940540947987e-03 5.4671962977142653e-03  -9.6923616042717529e-04 8.8769213469179417e-03 -1.0575734967405504e-03  1.2578877609971501e-03 -1.5695276235318023e-02 -1.8555646772795841e-03  5.3980633895089945e-04 1.2050375449013417e-02 8.2055128321809976e-03  -2.0720026454093881e-05 -7.9361884803785809e-03 7.1422623225293278e-03  1.0065747454522241e-03 1.0900499274587649e-02 -4.2546675072807350e-03  -2.1591345494473757e-03 1.9841228565594411e-03 -3.1980730768203258e-03  -4.9373063372393190e-04 9.4519285178824370e-05 1.4698386509365531e-03  1.1925959611791684e-03 -1.4258346890019086e-02 6.7806984948880558e-04  2.9455728112927365e-04 1.0455587771425062e-02 -5.6390789702837618e-03  -1.4124921238334201e-03 -1.5149914855310023e-02 -6.1191262720558558e-04  2.3231302465791384e-04 1.0644727202174022e-02 -5.5873771879034724e-04  -1.4073872590298532e-04 -7.9884624393697975e-03 -9.4542266608184009e-04  -7.6213099687624396e-04 9.2309870989209456e-03 -3.1608813698193404e-03  -5.7109050493476502e-04 -1.5668482224935387e-02 -1.7354419578372400e-03  -7.7578552142211379e-04 4.6844273112953534e-04 -4.0611354452635097e-03  6.0888030006498969e-04 -1.4288056243820603e-02 -5.0732575062741063e-03  3.1147614838870539e-04 1.3581646878595765e-02 3.2326633933421386e-03  3.1528417959613824e-04 -1.4454965573957361e-02 5.9784304054596189e-03  -8.7362893163087573e-04 7.4369230983745262e-03 -7.2388042126116034e-03  5.6974059879653959e-04 -9.3470802554128929e-03 -1.2047724490286428e-04  9.2239655188521767e-04 1.2804246234041508e-02 9.2179152985253313e-03  3.4235899676991929e-05 -1.5933756169890519e-02 6.3756524603843390e-03  -9.1638483741343245e-04 7.6516058434741617e-03 5.0517983561157616e-03  -1.7496680452829262e-04 -1.2988155223651132e-02 3.8029283617099733e-03  4.0963777736335231e-04 1.3452828920229826e-02 -3.3327997801125501e-03  -4.9555110853096416e-04 -3.2943981058100491e-03 -4.5383918515199450e-03  1.8071208549412241e-03 7.6827362915589939e-03 -5.7185051056283869e-04  -8.3933795907456706e-04 -1.0537117289885175e-02 -4.9841413736574618e-03  -1.4515384094579396e-04 1.5902245399562823e-02 4.8750606520760117e-03  1.6262438006751936e-04 -4.5708054581553364e-03 1.4403043287429021e-03  -1.1541656320350235e-03 5.6271828470081395e-03 -7.4335082843292096e-03  5.1245824729438184e-04 -1.3635054441036106e-02 -2.9414863225559846e-03  1.4907161383990871e-03 1.5698423025661011e-02 -5.6403246782269958e-03  -1.2200859679870086e-03 -7.6734778674477254e-03 -6.3015423276204172e-03  -1.6872811614031602e-04 7.8005080400021564e-03 -6.8630542250312631e-03  6.3631736917014905e-04 -8.4826053240417750e-03 -2.8593898917424888e-03  3.1982511187668766e-03 1.2688149238442557e-02 -1.7069659281288444e-03  -9.1346938309891346e-04 -1.3118509959509051e-02 4.1502407670789363e-03  -5.0004881975674242e-04 1.1571417321209683e-02 -6.7417077955132607e-03  6.4879103729867111e-04 -3.7915447515749082e-03 -8.7906288567220423e-03  6.5602763525990978e-04 8.2892786726256190e-03 7.0295322564971536e-05  6.4809692179141145e-04 -1.9882788642382972e-02 -3.8719944594450182e-03  -1.6948664429698945e-04 1.5953299640701069e-02 6.6208570204271816e-03  -6.8535781797655025e-04 -1.1991800894466895e-02 1.0306005297956384e-02  8.7774931194982181e-04 2.8597152606382199e-03 -2.2351052415240289e-03  -1.7563820708599172e-03 -1.2428709562118062e-02 -6.9877280488945259e-03  4.3371192710565748e-05 1.2233929326109495e-02 -6.5732321883943791e-03  1.8677041145621204e-04 -1.0445319542972091e-02 -5.2200715339095431e-03  -8.1547068896938892e-05 5.7540791825914277e-03 -2.9145368383084467e-03  -1.8603709472301410e-03 -1.5037763328739410e-02 -6.8518294982355590e-03  -1.5927468734490441e-03 7.4031356338773013e-03 4.4687190615959700e-03  -5.8537667940774694e-04 -1.0697455034096481e-02 -7.2193752757821446e-03  -1.3830797860361522e-04 1.0265936843196410e-02 -1.3448329488182232e-03  -2.9095093850663319e-04 -1.3890062136599273e-03 5.2898073019342273e-03  -6.7747426006655581e-04 1.4488694292553719e-02 3.4924740080515305e-03  3.0995781859783229e-04 -1.0829559214273322e-02 6.3366342357298166e-03  1.5101070978203486e-04 1.3633690205335794e-02 1.6524225546066604e-04  1.1418686171036094e-03 -1.0524383529947804e-02 4.8139708364416892e-03  -1.2796705835522945e-03 -1.5814133047176695e-03 3.2401933609526989e-03  -1.2796705835522945e-03 -1.5814133047176695e-03 3.2401933609526989e-03  -1.2796705835522945e-03 -1.5814133047176695e-03 3.2401933609526989e-03  -1.2796705835522945e-03 -1.5814133047176695e-03 3.2401933609526989e-03  -1.2796705835522945e-03 -1.5814133047176695e-03 3.2401933609526989e-03  -1.2796705835522945e-03 -1.5814133047176695e-03 3.2401933609526989e-03  -1.2796705835522945e-03 -1.5814133047176695e-03 3.2401933609526989e-03  -1.2796705835522945e-03 -1.5814133047176695e-03 3.2401933609526989e-03  1.7924927790366992e-04 -8.2511710425089545e-03 -1.1218774426453655e-03  5.6118426061605548e-04 -4.2134436841773345e-03 -1.3701455639514562e-03  1.1265063715974290e-03 3.9407951760703208e-04 -7.1014255468829180e-04  1.6095987989009008e-03 3.2299465339077180e-03 4.5225497931127603e-04  8.2674868923072510e-04 1.1897883695848139e-02 -1.0350347769692387e-03  -9.9448216510957107e-04 -7.2239509578355407e-03 -3.8931276077472346e-03  -1.1139759420884536e-03 -8.0279448515625240e-03 -2.9734699017011693e-03  -9.3569718340378834e-04 -2.1190503653628293e-03 -3.4808284854088360e-03  -1.2065860330507266e-04 8.4635631907410760e-03 -2.9171090907916062e-03  3.7845387050475482e-04 1.3593342393115330e-02 1.0016254922659437e-04  1.1677535327650037e-03 1.5009028612510958e-02 2.4535156988710330e-03  1.0620647921241626e-03 -5.8689026016431802e-03 -2.9740463435402225e-04  2.3794677662100470e-04 -4.4079660097932957e-03 -1.9251268892297356e-04  3.3048311830800653e-04 -1.0888604824078952e-03 2.6668833019095565e-03  2.3580799235664948e-04 7.4510422510661138e-03 4.1864960201531071e-03  1.8584495110732449e-05 1.6571388240107433e-02 5.4843616029279967e-04  2.1550855548391155e-04 -1.3098938090238254e-02 -1.2620402670370463e-02  9.5760893142583933e-04 -7.9738396997671469e-03 -1.2761559892605565e-02  8.8218983795115130e-04 -5.0577007828317014e-03 -1.0418996458237986e-02  2.5588557624245568e-04 -3.0062944859561127e-03 -8.4344724376227368e-03  -4.2042669463365686e-04 3.8356920408361694e-03 -9.1594256446262262e-03  -2.0585849666337854e-04 9.0520794804559261e-03 -9.6565725604141704e-03  -4.0378251549887096e-04 -1.3887165587792669e-02 -6.6283923556960975e-04  -2.2904561952710969e-04 -8.6096009616129406e-03 -5.1740959456647378e-04  3.6985687489786217e-04 -7.4700437640004048e-04 -2.7182820776345358e-04  5.3132367535829055e-04 5.4486295494705289e-03 -7.7774170832797438e-04  6.7802670579165125e-05 1.0313174584638315e-02 -1.7208830779832198e-03  6.7135923017844971e-04 -1.1598082405991300e-02 2.9445719028085410e-03  1.3768344685289959e-03 -2.1819420915648916e-03 4.3319874955152689e-04  1.8213428666080513e-03 7.6958772511822350e-03 2.4013401294709085e-03  5.9867427334915136e-04 1.0564857765495228e-02 4.7735457764302193e-03  -4.5434052532440953e-04 1.2463114787478838e-02 5.4639607589556305e-03  -6.9248848693407715e-04 -1.8821526353059437e-02 -1.3747078206037420e-03  -3.7758757685647711e-04 -1.6287631057859162e-02 -1.5438330651840078e-03  -4.9064035562771714e-04 -9.5941765957794720e-03 -1.8958838502238138e-03  -7.3777286940892293e-04 -3.1469548967970906e-03 -1.1858769129799226e-03  -1.9771951214539392e-04 -1.5925258584597614e-03 1.6927028060160323e-03  8.1189424548583095e-04 8.8155030003469114e-04 3.2163206990075636e-03  -2.2623426785879424e-03 -3.3556972202363343e-03 -7.7444935534223499e-04  -6.4647854131922352e-04 -2.0293551513582255e-03 9.9147513389510195e-04  2.8389177638252797e-04 -6.2545134069956953e-04 2.9788006939799850e-06  4.6770926845432476e-04 3.4120810691983558e-03 -1.2125557660387261e-03  6.6278307159460656e-04 9.3553712092757004e-03 -1.9716063748198599e-03  8.1445484794139813e-04 1.4258504636760549e-02 -2.4753338920396233e-03  8.2134981404503437e-04 -1.3304891994747893e-02 6.2563094592227447e-03  3.0591273681032744e-05 -1.0153611182840810e-02 8.2357642947977604e-03  -8.9536012788102000e-04 -1.8338828643262848e-03 9.1350667270088774e-03  -1.1506546589930295e-03 -1.3868606279317864e-03 7.6330496802599190e-03  -7.9274630068985549e-04 4.1375847884274038e-03 6.6594212860555512e-03  6.6340757515481285e-04 -6.3164664647121834e-03 3.9056828676850633e-03  2.5873732447544346e-04 -2.1253582950599985e-03 3.3472526731146732e-03  -9.6773653292036519e-05 3.3447388707889603e-03 3.2566926536010746e-03  -1.3884153603593274e-04 9.3127901058040266e-03 3.1811867587501178e-03  -1.3232236147297813e-04 1.3526531757135710e-02 3.2169793539170680e-03  -1.2283521918090434e-04 1.6598661248018474e-02 3.3458295069331723e-03  -8.7643068870497685e-05 -4.9701698843442749e-03 2.2471189429870914e-03  -7.1527188274372270e-04 -3.1876733474833535e-03 3.0584864912570819e-03  -6.1332931797188951e-04 2.2034424430885245e-03 3.1212303164554252e-03  -1.5755675939440152e-04 7.9307735821780925e-03 3.3519413416327986e-03  -3.5983666733455898e-05 1.0266457979310554e-02 3.4998818527884933e-03  -5.1446633233013985e-04 -8.3191289057800728e-03 3.3213391570816385e-03  -1.1439480003172585e-03 -6.0255684189835200e-03 4.8183964438723009e-03  -1.7062194519265380e-03 1.9660303982156676e-03 6.0203711539768539e-03  -1.6611321966057931e-03 3.4876026063464533e-03 6.4871373973127717e-03  -1.3280967373497203e-03 3.3518390727964534e-03 8.3642033624532434e-03  1.7433307869902870e-04 -7.0127924915006617e-03 -3.5934230937922818e-03  3.8509735334052772e-04 -4.4458421064223399e-03 -1.5506269739578821e-03  1.0482074123717034e-03 2.6249533655868045e-03 4.6985632813669815e-04  4.2854150765928489e-04 1.1843187739581823e-02 1.5576653499650757e-04  -4.9947689209006718e-04 1.4025451353108304e-02 -9.7582992683457946e-04  -7.1068763786757639e-06 -1.4403142359443802e-02 -4.5466589414112756e-03  -7.6273746905876751e-04 -9.6364429978067767e-03 -3.6703087928636577e-03  -1.3099938688686059e-03 -3.8113693700851832e-03 -2.4033721672563893e-03  -1.1313981950023500e-03 3.9985158080013808e-04 -1.1123487579043163e-03  7.8114951925546423e-05 2.0033739113002867e-03 -5.1567692141817935e-04  2.9832820291671077e-04 -1.4568484394727355e-02 -3.9403766280525724e-03  -6.4221560580012492e-04 -6.4936370155371098e-03 -4.3622011053312346e-03  -9.3054593237125818e-04 -4.6962209461850666e-04 -3.5828399862106409e-03  -9.6796626657363481e-04 4.1021720599253393e-03 -2.5432918639214197e-03  -6.5083060679405383e-04 7.7242496724049207e-03 -1.4964684572140701e-03  2.0445398395477346e-04 8.6519068442113163e-03 -7.1395272185180978e-04  6.6183855036083784e-04 -1.5256793298430785e-02 6.1010304838853653e-03  4.5313063567477599e-04 -1.1712395936596346e-02 4.5386333009828899e-03  5.7042437904833410e-04 -5.2408130832940500e-03 4.1676895786199649e-03  6.2107253142747090e-04 1.5858172907735459e-03 4.3340931004085381e-03  -4.2525815183091843e-05 7.7393965060049792e-03 4.9212020992619098e-03  -4.6930334486091393e-04 1.0567198823829144e-02 6.6138243443967740e-03  -3.6136023624935745e-04 -1.0001819143025540e-02 -4.9884838039649373e-03  -2.2017437638817085e-05 -7.8521561011475078e-03 -5.5710018248600153e-03  1.1756059817637453e-03 -5.7316499556357085e-04 -6.1087587602327072e-03  2.0004656131941299e-03 5.8560437344860172e-03 -4.8407352286262278e-03  2.4391867762723618e-03 8.4388199517007392e-03 -4.1140027270701058e-03  1.9112838783870536e-03 9.9517329523779625e-03 -5.3476350722835306e-03  1.5816692903869644e-03 -6.7726101482958479e-03 -8.6979610527600504e-03  8.9452023556728919e-04 -3.8682158427107813e-03 -1.0412413298110502e-02  8.5083808010132621e-04 2.5655404559904351e-04 -1.0245171755160178e-02  1.1783720449982514e-03 6.2507019934663682e-03 -1.0025243552513342e-02  -1.8184472264600823e-05 1.0993840435115931e-02 -9.3255249147601998e-03  -1.0410636124334081e-03 1.5553513455760773e-02 -7.2721616704310328e-03  1.5251822188097847e-03 -4.1908546222240778e-03 2.1261203435812091e-03  6.0277345542935105e-04 -1.9787883691874445e-03 -8.6982982476449075e-05  -7.2601324853822848e-04 6.6935394778678886e-03 -1.3602610433590891e-03  -1.0275877870948782e-03 1.1270613403836933e-02 -1.5855979109379561e-03  -6.9964200521018167e-04 1.6282861226222613e-02 -1.2305541007520079e-03  -1.3066588595087919e-03 -1.4535873832346112e-02 2.5491150452075033e-03  -1.0654455650396684e-03 -1.2832949466226547e-02 3.1542362967860674e-03  -5.9132598192444341e-04 -8.8833777608971504e-03 3.9455363422706132e-03  -1.5565606116093702e-04 -4.1584474271371798e-03 5.5565255848468399e-03  7.5191972792067879e-04 -2.3901000576974449e-03 8.9251173851335013e-03  1.9197824238804133e-03 2.0779952950300382e-03 8.8412872958