<?xml version="1.0"?>
<VTKFile type="UnstructuredGrid"  version="0.1"  >
<UnstructuredGrid>
<Piece  NumberOfPoints="10687" NumberOfCells="56126">
<Points>
<DataArray  type="Float64"  NumberOfComponents="3"  format="ascii">0.4706328524869254 0.3352322234089791 0.8777449593304169  0.4706328524869254 0.3352322234089791 0.6878592759156478  0.1034871134917706 0.5074314354846614 0.8066156942878907  0.1034871134917706 0.5074314354846614 0.6093728192209301  0.1551675959173425 0.1700780340113893 0.875250033073221  0.1551675959173425 0.1700780340113893 0.6887864874752977  0.6669562922359631 0.1602970868684059 0.4523658258931287  0.6669562922359631 0.1602970868684059 0.2552523885148201  0.8003443519139738 0.2822561447883644 0.5930006311386973  0.8003443519139738 0.2822561447883644 0.4029796476326826  0.3457009019302847 0.8221886364192141 0.5097404498597131  0.3457009019302847 0.8221886364192141 0.3235132646209543  0.6237009005988635 0.4378266539505478 0.2728752701731033  0.6237009005988635 0.4378266539505478 0.07525023687650988  0.4405325061441246 0.3736500425446249 0.5430824476200887  0.4405325061441246 0.3736500425446249 0.3511080030756988  0.4729985941354655 0.6549215713426292 0.4263803603294994  0.4729985941354655 0.6549215713426292 0.2440419383971545  0.8497539722219983 0.8932368319026851 0.9216855557035772  0.8497539722219983 0.8932368319026851 0.7221440259988454  0.8256793108961468 0.7200648726620793 0.7639372733217841  0.8256793108961468 0.7200648726620793 0.5739950021841588  0.1069186229833285 0.6471377132733304 0.4117225740732061  0.1069186229833285 0.6471377132733304 0.2311622835575079  0.3822781833640896 0.5574912839699678 0.9533440625467628  0.3822781833640896 0.5574912839699678 0.7623135689543359  0.8147419951305515 0.2077660562437428 0.3196503739819442  0.8147419951305515 0.2077660562437428 0.1385979793947633  0.1972576198188177 0.3008180057196627 0.3694160647549479  0.1972576198188177 0.3008180057196627 0.1758758540439013  0.8360164207720789 0.8411691785045133 0.5662074074775733  0.8360164207720789 0.8411691785045133 0.3702535016975271  0.5870354117953491 0.5660469816113 0.5884142613115635  0.5870354117953491 0.5660469816113 0.3889691321045217  0.4682471314611975 0.1448489912149886 0.8421094343015803  0.4682471314611975 0.1448489912149886 0.6438471092958917  0.6940717249633667 0.4607923761098732 0.8373193364331413  0.6940717249633667 0.4607923761098732 0.6563146310164385  0.785995235512619 0.6118189069427523 0.2338427776004194  0.785995235512619 0.6118189069427523 0.03467503973286271  0.4711608296195493 0.8399200905079074 0.7767650594383581  0.4711608296195493 0.8399200905079074 0.5818925919184107  0.1801403835158435 0.888221913884045 0.990408893193204  0.1801403835158435 0.888221913884045 0.79844056802017  0.379674926453424 0.8536855703585062 0.2351921571476348  0.379674926453424 0.8536855703585062 0.0367335871861858  0.1197640691976752 0.7241686785603229 0.701197367823817  0.1197640691976752 0.7241686785603229 0.5081196252826443  0.6823045980785605 0.2275345134410378 0.8110132454137582  0.6823045980785605 0.2275345134410378 0.61986059688904  0.2881707672229488 0.1093262749891311 0.3184398658161565  0.2881707672229488 0.1093262749891311 0.1241046849491645  0.7774679126000535 0.7954105823147033 0.3480073147218777  0.7774679126000535 0.7954105823147033 0.1599755114172284  0.8821149028858677 0.5311745557285129 0.5925105119985196  0.8821149028858677 0.5311745557285129 0.4060578796192374  0.3071209529928384 0.1043048214911635 0.9617263867358654  0.3071209529928384 0.1043048214911635 0.7749365953088263  0.3525143821419499 0.3169473982787399 0.2291485270263934  0.3525143821419499 0.3169473982787399 0.04052806879835649  0.2181911936865633 0.3467435072607196 0.7841054602954397  0.2181911936865633 0.3467435072607196 0.588251967758406  0.2052926494692249 0.6881980115813477 0.9811716612959469  0.2052926494692249 0.6881980115813477 0.7955537425052899  0.4419455308138652 0.5869557230442789 0.7175835947230391  0.4419455308138652 0.5869557230442789 0.5256597562153662  0.294665186602361 0.6297354240358883 0.3515875299946371  0.294665186602361 0.6297354240358883 0.1633028021985535  0.3227169748663333 0.5398714276283029 0.5639795035497261  0.3227169748663333 0.5398714276283029 0.378333216495109  0.1114385766623374 0.8685745816913473 0.3040524992463673  0.1114385766623374 0.8685745816913473 0.10713307046516  0.5768519201823341 0.6856015444446069 0.9383266886417795  0.5768519201823341 0.6856015444446069 0.7525040529472974  0.387087532636763 0.1213997847509466 0.6253730097825071  0.387087532636763 0.1213997847509466 0.438190523979103  0.6062288422037078 0.262839894910132 0.99341968440379  0.6062288422037078 0.262839894910132 0.8118440972228763  0.1052974916493386 0.8900083661633854 0.5164136557566272  0.1052974916493386 0.8900083661633854 0.3321874517919751  0.5805007131695868 0.7658611554335449 0.5679064974425381  0.5805007131695868 0.7658611554335449 0.3867126908397862  0.8516646744159143 0.2821683149545192 0.9409572112451419  0.8516646744159143 0.2821683149545192 0.7455714212800446  0.52404992415023 0.2780871128774421 0.3851725541416735  0.52404992415023 0.2780871128774421 0.1971507048530348  0.2116566820145898 0.1397944573048898 0.5132462827415352  0.2116566820145898 0.1397944573048898 0.3173628533488575  0.8787093807723328 0.5359917439672732 0.3883784795565568  0.8787093807723328 0.5359917439672732 0.198701352242609  0.6144164698667431 0.7844219822337941 0.1881254131007406  0.6144164698667431 0.7844219822337941 0.006043874964533597  0.4594895236684425 0.6108427328851304 0.2214183277823102  0.4594895236684425 0.6108427328851304 0.02582458776000437  0.5846912998959422 0.1912564379102963 0.6442011846733058  0.5846912998959422 0.1912564379102963 0.4471094609561432  0.4376617605251478 0.8509256947182723 0.985861774998762  0.4376617605251478 0.8509256947182723 0.7867071047808379  0.6502976040252852 0.6086550516104462 0.3753306749972641  0.6502976040252852 0.6086550516104462 0.1854211248996367  0.8876636186541877 0.5622378810098793 0.9503971839153895  0.8876636186541877 0.5622378810098793 0.7599168786902926  0.2133557149328592 0.4585472573307414 0.2413300010571164  0.2133557149328592 0.4585472573307414 0.05295022537550523  0.6438645437873705 0.9022569832392023 0.986223980555191  0.6438645437873705 0.9022569832392023 0.7989562306065728  0.1854927726319018 0.4330096691290367 0.9853296730958092  0.1854927726319018 0.4330096691290367 0.8023316876953659  0.09695224934892709 0.6455243829394482 0.2269514078741489  0.09695224934892709 0.6455243829394482 0.03525945886312525  0.1150316721987143 0.3549716681973091 0.5871978999251575  0.1150316721987143 0.3549716681973091 0.3879609486143939  0.5757350151836823 0.4665368634303342 0.996037568322176  0.5757350151836823 0.4665368634303342 0.804635477636761  0.1011258347983123 0.1590597171257113 0.2378999832054884  0.1011258347983123 0.1590597171257113 0.04165775047141082  0.4937961521621999 0.1130252749494917 0.2121370539057493  0.4937961521621999 0.1130252749494917 0.01584979746588065  0.2796333239519485 0.8321790983111345 0.8313735371451578  0.2796333239519485 0.8321790983111345 0.6411738078935798  0.6670817002427245 0.3996340023285802 0.6661703992759127  0.6670817002427245 0.3996340023285802 0.4807705913442979  0.5139914323799297 0.8842491428733793 0.4342752682662568  0.5139914323799297 0.8842491428733793 0.2344875384254968  0.9036215136064625 0.9017721207810987 0.2156155030609907  0.9036215136064625 0.9017721207810987 0.03338198835358491  0.8850331270919829 0.1070874232410335 0.7378892180036393  0.8850331270919829 0.1070874232410335 0.5394112991597327  0.7061591093009325 0.3810690626819092 0.4399816354879634  0.7061591093009325 0.3810690626819092 0.2520717392923854  0.7617678714839212 0.7144331728793709 0.9511940286569709  0.7617678714839212 0.7144331728793709 0.7703826691334883  0.8530869996603592 0.4103543703954326 0.2227979277895693  0.8530869996603592 0.4103543703954326 0.02673489421551535  0.7753772064547346 0.1088590128627752 0.9731649464759533  0.7753772064547346 0.1088590128627752 0.7861020919010442  0.1246681246167302 0.1310148493942221 0.6883620921281157  0.1246681246167302 0.1310148493942221 0.4982651613712048  0.270755122579547 0.6310956435431518 0.808149283268402  0.270755122579547 0.6310956435431518 0.616041978421889  0.8779458547471886 0.4546397739551304 0.7816436885678562  0.8779458547471886 0.4546397739551304 0.5940258508268208  0.4166014913878097 0.4652268640852085 0.3494357886739298  0.4166014913878097 0.4652268640852085 0.1542598315164533  0.6786285008212247 0.8743089140879927 0.7095600510588536  0.6786285008212247 0.8743089140879927 0.5096335519371944  0.6529346925218172 0.235424933900179 0.2277364041219512  0.6529346925218172 0.235424933900179 0.02872325435473627  0.4578239511648054 0.1001606962784116 0.405464599085457  0.4578239511648054 0.1001606962784116 0.2213989182469846  0.8752393003034642 0.1150781083147004 0.5276814692699038  0.8752393003034642 0.1150781083147004 0.3331964711550469  0.1152155686924174 0.5576195367071964 0.5907457404339491  0.1152155686924174 0.5576195367071964 0.3963809359334431  0.6202460967293077 0.6688509375969818 0.7440618626186406  0.6202460967293077 0.6688509375969818 0.5589240766271628  0.09301971027453279 0.8788464434908526 0.8057129855623278  0.09301971027453279 0.8788464434908526 0.6215093682763838  0.7557499875356086 0.6629419514118857 0.5343321026713651  0.7557499875356086 0.6629419514118857 0.3355998821193185  0 0 1  0 0 0  0 1 1  0 1 0  1 0 0  1 0 1  1 1 1  1 1 0  0.5181042733406177 0.3352322234089791 0.7005792047969526  0.5528557653130052 0.3352322234089791 0.73533069676934  0.56557569419431 0.3352322234089791 0.7828021176230323  0.5528557653130052 0.3352322234089791 0.8302735384767246  0.5181042733406178 0.3352322234089791 0.8650250304491121  0.1462773515659456 0.5074314354846614 0.6191394118289615  0.1805924582016996 0.5074314354846614 0.6465047962076372  0.1996359056826566 0.5074314354846614 0.6860489223663458  0.19963590568
[...]
<PointData  Vectors="f_11034-0"> 
<DataArray  type="Float64"  Name="f_11034-0"  NumberOfComponents="3" format="ascii">-3.3105909998539106e-03 -8.3010422427530831e-03 7.8963939495261382e-05  -1.5749929783163748e-03 -3.9607418943577305e-03 1.2314851025318536e-04  -4.9237476504654170e-04 -8.5502392985190110e-03 1.3591456882514289e-03  -3.8497547299786265e-03 -5.1189315279743007e-03 -1.5599498502138866e-04  7.8162789490598419e-04 -6.8553489159864575e-03 -6.0418083279430894e-04  3.7217822783384015e-04 -1.7957357850449367e-03 4.0842303120960081e-04  -8.7874754921208244e-03 4.1075538544080555e-03 5.2011523976347961e-04  -1.0766881233556409e-02 4.9059990565485882e-03 6.6720422534497154e-04  -3.0063903704759510e-03 5.5065828962482218e-03 -1.6679537343098703e-03  -2.0737340836106512e-03 1.1233491927556981e-02 4.2415597450998693e-04  7.1832041823582920e-03 -4.6103390625881315e-03 -8.0770293262729938e-04  4.6989081307297204e-03 -7.4828529627968734e-03 1.5605715065169010e-04  1.3113023443067150e-03 -1.1950056296439395e-03 9.5944861738339257e-04  -2.1959784702049426e-03 1.7856128573818782e-03 -7.0178809210155399e-04  -4.1883386674075578e-03 -4.8101856530417915e-03 1.4931498245791155e-04  -1.4420277187962730e-03 -6.5596713065495492e-03 -1.1577698734846374e-03  5.8927217144946467e-03 -7.3368608202135930e-03 -8.0277632445137934e-04  9.6462592050392277e-03 5.2196243730088561e-05 -7.3460687916981169e-05  3.4338233392941387e-03 7.3651379339023885e-03 9.2650905194449970e-05  6.0597941494370594e-03 6.1100459498315673e-03 5.8299815447318440e-04  2.4598374168083754e-03 6.8241755639217904e-03 4.1083197214192178e-06  3.2899448359471192e-03 7.6166538056794599e-03 1.5614359553610643e-03  1.0446686419694710e-02 -3.0610687400670382e-03 2.5423588937550527e-04  4.6247205020196686e-03 -3.3893722597275154e-03 -3.8839805354521105e-04  -1.2629983760339389e-04 -3.7384722318397380e-03 -1.3188706053621766e-03  -6.7094765717904004e-03 1.1566413187168356e-03 7.3891361329022503e-04  -8.4494503003443593e-04 9.8083184642088674e-03 1.1202921817773071e-03  -6.9093094395548523e-03 8.2354080982204557e-03 8.5518545658765847e-04  -2.7702179406136115e-03 -3.5396500523076566e-03 1.1961144245313188e-03  -2.1823769324213179e-03 -7.6438340465611607e-03 6.0445497410200710e-04  6.2789094069726822e-03 8.3502749312816572e-03 5.9896974063733779e-04  8.8056550312383252e-03 9.1419627496734587e-03 4.3744412024880197e-05  -6.0171906906098015e-03 -3.4099339265838773e-03 2.0928377192279846e-04  -4.9591379947665866e-03 -3.0831320009394277e-04 -7.0174128674109872e-04  -3.5958920548524748e-03 -2.4124836452146686e-03 -1.4921365375475135e-04  -5.5513109010304311e-03 -3.4305770289568861e-03 1.2752258077758972e-03  -2.3585745847283590e-03 7.0550683025705453e-03 -7.2628793281609850e-04  3.1304955894215533e-03 6.1728362102291901e-03 -2.3761380051531020e-04  8.0922875213347532e-03 5.9380860311735199e-03 9.8588369762956599e-04  1.4326634194053408e-03 5.7010228710325439e-03 -1.0298434306432187e-03  5.4381627980381120e-03 8.5445220512625356e-04 2.9322508508541819e-04  8.9411852959415793e-03 -5.7002477977425624e-03 -1.3095826605997675e-03  3.7500589724527495e-03 -4.4712731606995279e-03 -5.7880843191126911e-04  9.7104856348207719e-03 -6.5194547578644180e-03 -9.9037477853770048e-04  4.3929123535121142e-03 -5.9808463695455293e-03 -4.2771662903184622e-04  4.2505133051588175e-03 -4.3077611762469470e-03 2.9346928279720870e-04  2.2728695741864760e-03 -7.0453590502828648e-03 -4.9298562440424688e-04  7.0564686950984040e-03 -1.5303950167800606e-03 2.0345182331053726e-04  -5.0818111201518402e-03 2.3355911360450543e-03 1.9215792827763083e-03  -8.7932277133274397e-04 6.0529826589248801e-03 1.4670093075451547e-03  -6.3866382144937492e-03 -8.0138557988656807e-04 5.3294109385122431e-04  -4.1182185477155265e-03 -5.6285308340406331e-03 3.0502491490186286e-04  7.9622342438325552e-03 5.1228606705198869e-03 -1.7840767275469004e-03  4.5359595083738821e-03 3.6952532558037401e-03 -4.5936427349121554e-04  3.3008372773399852e-03 7.2003108806902357e-03 -5.1070989988898855e-04  -3.5370856281867107e-03 1.0673168003820042e-02 1.4786314515958759e-03  -7.3357378539834744e-04 -4.4071088206800628e-03 3.0184412634357710e-04  -5.8165868465706013e-03 -2.7335456906543132e-03 -2.1720989491827049e-05  -3.3734532027382847e-03 -5.7538358961902085e-03 -8.1490695392679477e-04  -3.3110316729261882e-03 -3.3438365975914197e-03 4.3801226928870439e-04  -5.6612816139825417e-03 -2.5990375082479917e-04 2.1379258679068541e-04  -4.4544062788462483e-03 2.6464033665387463e-03 4.3332638725278652e-04  2.1080927423467750e-03 -4.0260681529338226e-03 -3.0543307905159305e-04  4.1641813563567318e-03 -1.0092448464753479e-02 -3.7316359066268687e-04  -3.3703487567676715e-03 -1.7089903142028786e-03 3.1529575151752545e-04  4.6221667641784450e-03 -5.3542872782168776e-03 4.4850252553326771e-04  3.8954380392431705e-03 -7.2975116547030821e-03 -7.7218106092479671e-04  4.3825843528181524e-03 -5.5642938004038965e-03 7.9462436000743810e-04  -4.9585210671815273e-03 -5.4481514062103302e-03 -5.5868407595752667e-04  -1.6938262318564651e-03 -7.4742793467503649e-03 -1.4551260185755076e-03  3.6837507501475890e-03 -3.6546688076629350e-03 3.3644135608937043e-04  3.1516143108537716e-03 -2.6460305693842010e-03 -4.2489321328563733e-04  -8.9276681710250171e-06 1.9445642817880130e-03 -3.6906618067190358e-04  2.0584079113615140e-03 -1.2537004383966946e-03 1.7576700097355041e-04  -5.8108335363889693e-03 -6.0130147428764432e-03 -3.6363806313153364e-04  -5.2860469789282319e-03 -4.5619749189076825e-03 -6.0661473738769756e-04  -1.0891850278875997e-03 8.8944651354425184e-04 -1.5421404581891366e-03  -2.2859308969480651e-03 1.1193801263129077e-03 9.9656013303000375e-04  4.4795848757718274e-03 -2.3077225704290060e-03 8.6532237665032374e-04  5.2756814242190374e-03 -4.4686794472317730e-03 2.3192743777755259e-04  4.3662536369376221e-03 -5.4711152241668677e-03 6.3051904402326101e-04  7.0049643205627741e-03 6.3381355521928383e-03 -5.1589380091409971e-04  -2.2522726053717385e-03 6.5799004804089657e-03 8.6801850892570900e-04  -3.0629989044521242e-03 6.0117547550772449e-03 -1.0225681970800319e-03  -5.2306386848163574e-03 6.0739532402957774e-04 1.1838409221652916e-03  -2.6951715277273186e-03 -2.5441106660527750e-03 -3.1137997945138569e-04  -1.9940916200640577e-03 3.1685642599322784e-03 -1.8798288814416377e-04  -2.7353507000422066e-03 -9.0298802458194955e-03 -7.0832143179752453e-04  -3.1052287222659478e-03 1.0536012762419162e-02 1.6396392746607592e-03  -3.2714384904905403e-03 1.4511242634902426e-02 -4.7415340146155600e-04  7.1924102173135315e-03 2.8433340865614033e-03 4.3003559260179597e-04  2.2300026349415854e-03 2.7137766287400529e-03 5.5337331815682252e-04  4.7002589245021811e-03 2.7764772786080104e-04 -8.9483521309153429e-04  1.3007064775318593e-03 -3.0509964698476901e-03 -1.7248746496400572e-04  -5.7075930822424624e-03 -3.4343607998276039e-03 -4.1912700393482571e-04  -3.2547381275568042e-03 -2.8345281513997580e-03 -8.5370682145291272e-04  4.3825665795087917e-03 -1.6880413745903251e-03 7.1568076215486136e-04  8.1857673303015917e-03 -3.1688666006596190e-03 3.7630132688600535e-04  -1.9784054729392151e-03 5.2478757113484642e-04 -2.0099520972658184e-03  3.9575122803469000e-03 8.5401559759457307e-04 -9.7061703401662026e-04  -9.2018489031896677e-04 5.7714886967012800e-03 -9.1535860125822660e-04  4.2740745279164572e-03 7.5595200672240624e-03 -1.9037176090557098e-05  -1.9467218851127730e-03 -7.0219110146915687e-03 -8.4665222962516072e-04  -2.0618621765792974e-03 -4.7412481887226694e-03 2.0207585518756802e-03  5.4239410724175215e-03 4.4739406671241390e-03 7.2848401377165987e-04  6.4108062684727673e-03 7.5031775158624974e-04 -2.2304464543042811e-04  -2.8407250304938458e-03 -5.2935937147526148e-03 1.2998608504371054e-03  -6.1074168255771293e-03 -3.1631988876832219e-03 -2.3746967644609476e-03  3.9124131955375618e-03 -5.5605691688622996e-03 -4.1835602161538645e-04  1.2320314377228336e-03 -4.7089661727740617e-03 1.2774514746670522e-03  -4.2872440776660402e-03 -5.7169611616864320e-03 5.3687755420281217e-04  -9.7366129394553936e-04 -7.1423161749656263e-03 -1.1711633001633835e-03  -1.9264183327686282e-03 7.8206996230781106e-04 -6.8875758128266240e-05  2.6708357543252009e-04 -9.4507836319202118e-04 -3.0390038990322956e-04  -5.4060873040516384e-03 -9.4749925507353356e-03 -2.6834468276746014e-04  -2.0125784376227107e-03 -3.6366150481395550e-03 -7.1649636996281728e-04  -6.5452716710155652e-03 1.3672684594550860e-03 -5.8389648256429760e-06  -3.3382993043387784e-03 -2.7030312789102550e-03 6.2299888749472475e-05  5.6684758755484580e-04 2.5371224524557119e-03 1.0312262984442196e-04  7.8921749510171557e-03 -1.3802129681990017e-03 1.4596886542656985e-04  -7.2529598927392955e-03 -1.7156484423618567e-03 -1.1523478633161546e-03  -1.3951488808431431e-03 1.8522974654808732e-03 9.2749882769516373e-04  1.1371738401925284e-02 -3.6121939965812594e-03 5.9475371740383681e-04  6.6745439046551336e-03 2.3661706828121782e-03 2.2666436708441832e-04  8.0241895485816030e-03 6.1264085356987422e-03 -5.2804760773507680e-04  3.4716190804540779e-03 4.4372563422812273e-03 -4.9492681185460549e-04  -3.6818924075081457e-03 6.9396371132589632e-03 -1.2748997421669719e-04  -5.8309573488728311e-03 6.6308840051489864e-03 -7.2837655403279000e-04  -4.3473860770386715e-04 2.5918091706586812e-03 1.6399105328843361e-03  -6.4428853909361886e-03 1.0250542336913596e-02 -4.1782485478866874e-04  1.8029730619490852e-03 5.4739072373511102e-03 -4.3039445154185584e-04  2.3830206101174223e-03 3.9190354484507621e-04 3.2996588965482143e-04  -5.5563124628917274e-03 8.7463773965673237e-03 -7.1545276862777936e-04  -2.3810607483542730e-03 6.2372981734247568e-03 5.0080048806590803e-04  -3.3482285452959286e-03 6.5689674207754026e-03 1.1969870793917176e-03  -6.1891913171455409e-03 5.3155430617475791e-03 -1.3189731787934939e-03  -5.8035300387027731e-03 -6.1713637830511803e-03 -7.0145482987385018e-05  -3.7607452884334588e-03 -8.9829110655793784e-03 1.9611397291001038e-04  1.2950790720514386e-04 -1.9910941367246946e-03 2.4041127717268312e-03  3.2608633435256612e-03 -3.6120647182391000e-04 -4.1418048711953671e-04  -5.4185257418607850e-03 5.7985917833301781e-03 -2.6775512376878000e-04  -5.1571728518562104e-03 6.4245050224916739e-03 1.0055319102828168e-04  -1.1047632629514479e-03 -6.1423461857111131e-03 5.8593245434073414e-04  -1.2197574384651790e-03 -2.9913255516392256e-03 2.7736991162304677e-04  6.7647201779095223e-03 1.2883397261489733e-03 -1.1422411011580713e-04  1.2392995411154760e-02 3.5847993539095046e-03 -9.5868957641609810e-04  -4.0278216151531177e-03 5.1010896877013876e-03 1.1372014977894100e-03  -3.4656596445268679e-03 4.9997192165674685e-03 -2.4808504220603408e-03  -7.1646449801129825e-03 -3.2105582300295840e-03 2.7176766769465945e-04  -7.9250273461215371e-03 -3.7037393874969279e-03 4.0165648771575273e-04  -5.2040178645651287e-03 5.4058361844298722e-03 -6.6045532924743878e-04  -7.7096742162494894e-03 8.2793526472849308e-03 -9.0994812173143575e-04  7.5220097541663750e-04 -2.6606050659457501e-03 -1.4617221306083383e-03  -4.5525596594996600e-03 -2.8481913483358041e-03 -4.7504843210481747e-04  -1.7408891878255923e-03 3.3297988889125774e-03 -1.0336815561279752e-05  5.6485294856447052e-03 5.5798957864731345e-03 -9.4898308099234253e-04  3.9083979578938763e-03 -9.9602381297291508e-03 -6.2108295546579818e-04  7.7193056633378292e-03 -3.7869906844772146e-03 1.0702246165366688e-03  2.9146562202963869e-03 5.1952121344950031e-03 -1.4107368039014475e-04  9.3268092093405797e-03 7.1774555864636720e-03 5.3783288715465933e-04  2.6735268090769529e-03 4.8538560754619701e-04 -1.3643283398647910e-03  2.6735268090769529e-03 4.8538560754619701e-04 -1.3643283398647910e-03  2.6735268090769529e-03 4.8538560754619701e-04 -1.3643283398647910e-03  2.6735268090769529e-03 4.8538560754619701e-04 -1.3643283398647910e-03  2.6735268090769529e-03 4.8538560754619701e-04 -1.3643283398647910e-03  2.6735268090769529e-03 4.8538560754619701e-04 -1.3643283398647910e-03  2.6735268090769529e-03 4.8538560754619701e-04 -1.3643283398647910e-03  2.6735268090769529e-03 4.8538560754619701e-04 -1.3643283398647910e-03  -9.4286403906318581e-04 1.9198542143095002e-03 9.7315757668691675e-05  -2.6071420869505098e-04 5.3751509956193417e-03 2.8166029799995374e-04  -2.9688396184959315e-04 7.7211073211393656e-03 1.0068665089826652e-03  6.3965233850967601e-04 3.9513934389755400e-03 1.4359223604401687e-03  -4.5254191362636991e-04 -5.1239019566492339e-03 6.5012166466991799e-04  -4.1226976038250427e-03 3.5551224492784000e-03 -7.0505882043732154e-04  -4.5311799444347411e-03 6.7968372005926007e-03 -1.2118002009686335e-03  -5.8161435961319513e-03 6.9287198542411187e-03 -1.0629165744670695e-03  -6.2211715874220235e-03 5.5713855322581012e-03 6.8774112288406847e-05  -3.9269909009472864e-03 2.3376229232014109e-03 7.4452133977593368e-04  -1.0087916492341833e-03 -3.9813932662679978e-03 1.3896631521976564e-03  -1.3347791409277351e-03 5.9628872722592282e-03 8.9781187887978003e-04  -1.7034728703627328e-03 9.3837094128229239e-03 9.3856485838448157e-04  1.3240766771013763e-03 7.3653138266470269e-03 1.2949256669238839e-03  6.1120379686011566e-03 7.0315705643269862e-04 5.9382301372993347e-04  4.4739175073057469e-03 -4.3033450431208863e-03 -4.9070589471875039e-04  -1.2155126057063977e-02 7.7534849268157567e-03 4.3942706488765964e-04  -1.1158344967978840e-02 1.1528250748798345e-02 1.4271517244681350e-03  -6.5255875914217781e-03 1.6326881797066733e-02 1.8470025403742611e-03  -3.0362895954448945e-03 1.4307052948283921e-02 1.0774556429477946e-03  -4.1985186960381247e-03 9.4216183317826132e-03 -3.0425685506686988e-04  -7.1925957281340725e-03 6.7237860676486920e-03 -3.2903826323325879e-04  -1.7482411673745699e-03 1.4638380978832606e-02 1.5494401592160433e-04  -2.0439490635931639e-03 1.7760889593349111e-02 -1.5274475297211599e-04  -2.6952804699948230e-03 1.8241540081817539e-02 -4.8677251192109818e-05  -3.0448267696441627e-03 1.5668505964893172e-02 -1.1579676583508862e-04  -3.0673636864401704e-03 1.0738995328154600e-02 -8.5603684935127650e-04  2.6431824588491627e-03 -5.0265002569559051e-03 1.2164309281281361e-04  7.3672981979119759e-04 -2.7507153801603927e-03 1.1365148555949572e-03  5.2093438800660035e-03 2.0944719211984722e-03 1.9742752639724738e-03  8.3735171293948304e-03 3.1293428450612296e-03 6.3247942227997078e-04  8.0190025109129256e-03 4.7155130119585500e-04 -5.3635022180120793e-04  -2.1319541137777790e-03 7.9010768140474440e-03 -9.2369489801053775e-04  -1.3302701935396764e-03 1.1670773478978951e-02 -6.3834119740852091e-04  -1.2542094653807537e-03 1.3871203984437527e-02 -5.7647433753762079e-04  -2.4701162093148125e-03 1.6375693935633723e-02 -4.1290624159867563e-04  -1.5391188884443748e-03 1.5842247047660345e-02 8.7902602609267336e-05  1.6097906329862498e-03 7.4092706939978131e-03 8.1353771334311030e-04  -8.3184383032762363e-05 1.4635572843183764e-03 -1.7011978195642452e-03  -1.0237450820017946e-03 7.5539970222250610e-03 -9.4407178762779263e-04  -2.3392949284926166e-03 9.5606933809178601e-03 -2.4001774453189580e-04  -3.3616290045747795e-03 7.6831229510666800e-03 -8.4740243070028601e-05  -3.9746127159031672e-03 3.6581222633546217e-03 1.6805817208204280e-04  -3.9293012574937152e-03 -1.7961525387227441e-04 3.2388674465871063e-04  1.0551675267620285e-02 4.7898226427993164e-03 1.1781864325935720e-03  1.2144498050132511e-02 4.5680622493979835e-03 3.3464735050170696e-04  9.7423053272882396e-03 7.6222905265625395e-03 -1.4958734318863093e-03  6.2986892615028364e-03 6.8846993950893789e-03 -1.6084823319985240e-03  6.3206651363921854e-03 -2.5430432767483539e-03 -1.0882243017671799e-03  5.7281429244533562e-03 1.1363142626374209e-02 4.7809608024902863e-04  5.2915939814550169e-03 1.4140976045225500e-02 1.7561970871909436e-04  4.6391317552871578e-03 1.5636222670078130e-02 -5.5908671994135224e-05  3.9735465969582993e-03 1.6341600996090982e-02 -1.0368411509383485e-04  3.5580943836878544e-03 1.5313349357434447e-02 -1.3903091224646170e-04  3.1623785031108628e-03 1.1765663916639751e-02 -4.7690595121422329e-05  3.3712577861466503e-03 1.3699989972105366e-02 1.8345651385895444e-04  3.2677061484571888e-03 1.5411608011984615e-02 -3.9964640377097556e-04  2.4337985268683263e-03 1.5396331290793850e-02 -3.7985656947914497e-04  1.6487906936243854e-03 1.5973838931081331e-02 -1.3986809996839014e-04  1.6348742103996091e-03 1.2644905209757721e-02 -2.7290350285907412e-05  4.4551614317932626e-03 2.1048950494044773e-03 -2.0572067880049092e-04  5.4072019828377881e-03 7.5438824901393961e-04 -6.7929375339556043e-04  5.4453829617632822e-03 3.5276252586723148e-03 -1.2334492264703650e-03  6.1222487695127637e-03 6.8612491876089169e-03 -1.0896035228606256e-03  8.6943968222178893e-03 4.9033054449016799e-03 -6.4334859055451335e-04  -4.1922638049330576e-03 3.3894148220991525e-03 8.2325987839237784e-04  -2.2277063908870565e-03 4.2912364169857319e-03 1.0014127321646890e-03  6.7013605365799514e-04 2.2215164410427633e-03 1.4093357375771437e-03  2.4030049387035084e-03 1.6425951670964443e-03 3.1289944248583834e-04  1.0090895171182021e-03 -4.8644077449621027e-05 -8.9581563814760128e-04  -5.3123798976432695e-03 1.2675401581961832e-02 6.8251786534230844e-04  -4.6185432955833773e-03 1.6136039888330157e-02 -5.1208232558164910e-06  -4.2153395995664211e-03 1.8004628037174703e-02 -5.0929510401711349e-04  -3.8763055626424370e-03 1.7453691963156506e-02 -4.1881975402826432e-04  -2.7828683688082179e-03 1.4403077797661434e-02 5.9150894164908784e-04  -3.8384126435599222e-03 -3.9900053889387185e-03 2.7749389625935966e-04  -4.4071076508784002e-03 7.1456944555816878e-04 -2.6279385337869658e-04  -3.6085015402278434e-03 5.2493251259178872e-03 -3.7066799580210823e-04  -3.0283676944695441e-03 6.4045217869201842e-03 -3.2912656805508860e-04  -2.7189744716599523e-03 5.3596320427979332e-03 -2.6995006971812852e-05  -2.6738087429381929e-03 1.8432844693575441e-03 4.4700939544339960e-04  7.6360419285442776e-03 1.3393600228627799e-02 9.1362444787339159e-05  5.9820866809656634e-03 1.5253812218896205e-02 1.5096123949938584e-04  5.2209161699319469e-03 1.5909194395601171e-02 6.3432494300936289e-04  5.8269353869165761e-03 1.5936737928715833e-02 8.9003795578483213e-04  6.6708507090939865e-03 1.5421184662561259e-02 5.1195038582127668e-04  6.9978709615910384e-03 1.2767185290030059e-02 7.4587641748228556e-05  -6.0915038130555810e-03 4.5656298471722801e-03 -7.3420220355082332e-04  -8.1792819881285339e-03 8.2291414995638076e-03 -4.9797141880439583e-04  -8.1583174224696704e-03 1.2321725397736296e-02 1.1412229993323308e-03  -4.7122693769981192e-03 1.5320475929784180e-02 2.0588354369865422e-03  -3.2633214481621372e-03 1.3885836707979987e-02 1.8476197658282437e-03  -4.7433483668668395e-03 6.5492914568962982e-03 1.0626285361215947e-03  -7.5902867302254668e-03 7.5280334350267739e-04 1.3499315394183828e-03  -8.8469352216147962e-03 5.8211854050088021e-03 6.5955625410804737e-04  -1.0028746267949286e-02 8.4583042989570083e-03 9.1435601659351005e-04  -8.8332790410798889e-03 9.5428685289116882e-03 1.3187668848737735e-03  -7.1121156330710179e-03 7.5482820756209894e-03 2.7663620979756525e-04  -5.7116223148470872e-03 2.0160962918090528e-03 -4.4007657676668120e-04  7.8470675655948035e-04 1.1369837221430227e-02 6.1411111467287143e-04  -5.4605382169330456e-04 8.6862608858731729e-03 4.1105344622288653e-05  -1.9594561793425292e-03 1.0194719485685356e-02 -7.8391570937978727e-04  -3.1983654214804247e-03 1.0678855489538328e-02 -1.0342874913785471e-03  -2.8610491173218077e-03 8.6169374145769490e-03 -6.8841386590980601e-04  1.1691825479255608e-03 1.2137123030102857e-02 -1.2231721966130689e-03  1.3533688603990380e-03 1.7045665879606636e-02 -9.8531780946171997e-04  1.7509314628160334e-03 2.0235825632487384e-02 -4.7292921626142031e-04  2.5460508519122701e-03 2.1150672389681168e-02 1.9263280227307670e-04  5.5212996835675926e-03 1.8725078490374761e-02 9.6428778799073059e-04  8.8189013388402151e-03 1.1051480289256599e-02 1.3663926803082799e-03  7.9750513423845898e-03 -1.066382028