<?xml version="1.0"?>
<VTKFile type="UnstructuredGrid"  version="0.1"  >
<UnstructuredGrid>
<Piece  NumberOfPoints="10687" NumberOfCells="56126">
<Points>
<DataArray  type="Float64"  NumberOfComponents="3"  format="ascii">0.4706328524869254 0.3352322234089791 0.8777449593304169  0.4706328524869254 0.3352322234089791 0.6878592759156478  0.1034871134917706 0.5074314354846614 0.8066156942878907  0.1034871134917706 0.5074314354846614 0.6093728192209301  0.1551675959173425 0.1700780340113893 0.875250033073221  0.1551675959173425 0.1700780340113893 0.6887864874752977  0.6669562922359631 0.1602970868684059 0.4523658258931287  0.6669562922359631 0.1602970868684059 0.2552523885148201  0.8003443519139738 0.2822561447883644 0.5930006311386973  0.8003443519139738 0.2822561447883644 0.4029796476326826  0.3457009019302847 0.8221886364192141 0.5097404498597131  0.3457009019302847 0.8221886364192141 0.3235132646209543  0.6237009005988635 0.4378266539505478 0.2728752701731033  0.6237009005988635 0.4378266539505478 0.07525023687650988  0.4405325061441246 0.3736500425446249 0.5430824476200887  0.4405325061441246 0.3736500425446249 0.3511080030756988  0.4729985941354655 0.6549215713426292 0.4263803603294994  0.4729985941354655 0.6549215713426292 0.2440419383971545  0.8497539722219983 0.8932368319026851 0.9216855557035772  0.8497539722219983 0.8932368319026851 0.7221440259988454  0.8256793108961468 0.7200648726620793 0.7639372733217841  0.8256793108961468 0.7200648726620793 0.5739950021841588  0.1069186229833285 0.6471377132733304 0.4117225740732061  0.1069186229833285 0.6471377132733304 0.2311622835575079  0.3822781833640896 0.5574912839699678 0.9533440625467628  0.3822781833640896 0.5574912839699678 0.7623135689543359  0.8147419951305515 0.2077660562437428 0.3196503739819442  0.8147419951305515 0.2077660562437428 0.1385979793947633  0.1972576198188177 0.3008180057196627 0.3694160647549479  0.1972576198188177 0.3008180057196627 0.1758758540439013  0.8360164207720789 0.8411691785045133 0.5662074074775733  0.8360164207720789 0.8411691785045133 0.3702535016975271  0.5870354117953491 0.5660469816113 0.5884142613115635  0.5870354117953491 0.5660469816113 0.3889691321045217  0.4682471314611975 0.1448489912149886 0.8421094343015803  0.4682471314611975 0.1448489912149886 0.6438471092958917  0.6940717249633667 0.4607923761098732 0.8373193364331413  0.6940717249633667 0.4607923761098732 0.6563146310164385  0.785995235512619 0.6118189069427523 0.2338427776004194  0.785995235512619 0.6118189069427523 0.03467503973286271  0.4711608296195493 0.8399200905079074 0.7767650594383581  0.4711608296195493 0.8399200905079074 0.5818925919184107  0.1801403835158435 0.888221913884045 0.990408893193204  0.1801403835158435 0.888221913884045 0.79844056802017  0.379674926453424 0.8536855703585062 0.2351921571476348  0.379674926453424 0.8536855703585062 0.0367335871861858  0.1197640691976752 0.7241686785603229 0.701197367823817  0.1197640691976752 0.7241686785603229 0.5081196252826443  0.6823045980785605 0.2275345134410378 0.8110132454137582  0.6823045980785605 0.2275345134410378 0.61986059688904  0.2881707672229488 0.1093262749891311 0.3184398658161565  0.2881707672229488 0.1093262749891311 0.1241046849491645  0.7774679126000535 0.7954105823147033 0.3480073147218777  0.7774679126000535 0.7954105823147033 0.1599755114172284  0.8821149028858677 0.5311745557285129 0.5925105119985196  0.8821149028858677 0.5311745557285129 0.4060578796192374  0.3071209529928384 0.1043048214911635 0.9617263867358654  0.3071209529928384 0.1043048214911635 0.7749365953088263  0.3525143821419499 0.3169473982787399 0.2291485270263934  0.3525143821419499 0.3169473982787399 0.04052806879835649  0.2181911936865633 0.3467435072607196 0.7841054602954397  0.2181911936865633 0.3467435072607196 0.588251967758406  0.2052926494692249 0.6881980115813477 0.9811716612959469  0.2052926494692249 0.6881980115813477 0.7955537425052899  0.4419455308138652 0.5869557230442789 0.7175835947230391  0.4419455308138652 0.5869557230442789 0.5256597562153662  0.294665186602361 0.6297354240358883 0.3515875299946371  0.294665186602361 0.6297354240358883 0.1633028021985535  0.3227169748663333 0.5398714276283029 0.5639795035497261  0.3227169748663333 0.5398714276283029 0.378333216495109  0.1114385766623374 0.8685745816913473 0.3040524992463673  0.1114385766623374 0.8685745816913473 0.10713307046516  0.5768519201823341 0.6856015444446069 0.9383266886417795  0.5768519201823341 0.6856015444446069 0.7525040529472974  0.387087532636763 0.1213997847509466 0.6253730097825071  0.387087532636763 0.1213997847509466 0.438190523979103  0.6062288422037078 0.262839894910132 0.99341968440379  0.6062288422037078 0.262839894910132 0.8118440972228763  0.1052974916493386 0.8900083661633854 0.5164136557566272  0.1052974916493386 0.8900083661633854 0.3321874517919751  0.5805007131695868 0.7658611554335449 0.5679064974425381  0.5805007131695868 0.7658611554335449 0.3867126908397862  0.8516646744159143 0.2821683149545192 0.9409572112451419  0.8516646744159143 0.2821683149545192 0.7455714212800446  0.52404992415023 0.2780871128774421 0.3851725541416735  0.52404992415023 0.2780871128774421 0.1971507048530348  0.2116566820145898 0.1397944573048898 0.5132462827415352  0.2116566820145898 0.1397944573048898 0.3173628533488575  0.8787093807723328 0.5359917439672732 0.3883784795565568  0.8787093807723328 0.5359917439672732 0.198701352242609  0.6144164698667431 0.7844219822337941 0.1881254131007406  0.6144164698667431 0.7844219822337941 0.006043874964533597  0.4594895236684425 0.6108427328851304 0.2214183277823102  0.4594895236684425 0.6108427328851304 0.02582458776000437  0.5846912998959422 0.1912564379102963 0.6442011846733058  0.5846912998959422 0.1912564379102963 0.4471094609561432  0.4376617605251478 0.8509256947182723 0.985861774998762  0.4376617605251478 0.8509256947182723 0.7867071047808379  0.6502976040252852 0.6086550516104462 0.3753306749972641  0.6502976040252852 0.6086550516104462 0.1854211248996367  0.8876636186541877 0.5622378810098793 0.9503971839153895  0.8876636186541877 0.5622378810098793 0.7599168786902926  0.2133557149328592 0.4585472573307414 0.2413300010571164  0.2133557149328592 0.4585472573307414 0.05295022537550523  0.6438645437873705 0.9022569832392023 0.986223980555191  0.6438645437873705 0.9022569832392023 0.7989562306065728  0.1854927726319018 0.4330096691290367 0.9853296730958092  0.1854927726319018 0.4330096691290367 0.8023316876953659  0.09695224934892709 0.6455243829394482 0.2269514078741489  0.09695224934892709 0.6455243829394482 0.03525945886312525  0.1150316721987143 0.3549716681973091 0.5871978999251575  0.1150316721987143 0.3549716681973091 0.3879609486143939  0.5757350151836823 0.4665368634303342 0.996037568322176  0.5757350151836823 0.4665368634303342 0.804635477636761  0.1011258347983123 0.1590597171257113 0.2378999832054884  0.1011258347983123 0.1590597171257113 0.04165775047141082  0.4937961521621999 0.1130252749494917 0.2121370539057493  0.4937961521621999 0.1130252749494917 0.01584979746588065  0.2796333239519485 0.8321790983111345 0.8313735371451578  0.2796333239519485 0.8321790983111345 0.6411738078935798  0.6670817002427245 0.3996340023285802 0.6661703992759127  0.6670817002427245 0.3996340023285802 0.4807705913442979  0.5139914323799297 0.8842491428733793 0.4342752682662568  0.5139914323799297 0.8842491428733793 0.2344875384254968  0.9036215136064625 0.9017721207810987 0.2156155030609907  0.9036215136064625 0.9017721207810987 0.03338198835358491  0.8850331270919829 0.1070874232410335 0.7378892180036393  0.8850331270919829 0.1070874232410335 0.5394112991597327  0.7061591093009325 0.3810690626819092 0.4399816354879634  0.7061591093009325 0.3810690626819092 0.2520717392923854  0.7617678714839212 0.7144331728793709 0.9511940286569709  0.7617678714839212 0.7144331728793709 0.7703826691334883  0.8530869996603592 0.4103543703954326 0.2227979277895693  0.8530869996603592 0.4103543703954326 0.02673489421551535  0.7753772064547346 0.1088590128627752 0.9731649464759533  0.7753772064547346 0.1088590128627752 0.7861020919010442  0.1246681246167302 0.1310148493942221 0.6883620921281157  0.1246681246167302 0.1310148493942221 0.4982651613712048  0.270755122579547 0.6310956435431518 0.808149283268402  0.270755122579547 0.6310956435431518 0.616041978421889  0.8779458547471886 0.4546397739551304 0.7816436885678562  0.8779458547471886 0.4546397739551304 0.5940258508268208  0.4166014913878097 0.4652268640852085 0.3494357886739298  0.4166014913878097 0.4652268640852085 0.1542598315164533  0.6786285008212247 0.8743089140879927 0.7095600510588536  0.6786285008212247 0.8743089140879927 0.5096335519371944  0.6529346925218172 0.235424933900179 0.2277364041219512  0.6529346925218172 0.235424933900179 0.02872325435473627  0.4578239511648054 0.1001606962784116 0.405464599085457  0.4578239511648054 0.1001606962784116 0.2213989182469846  0.8752393003034642 0.1150781083147004 0.5276814692699038  0.8752393003034642 0.1150781083147004 0.3331964711550469  0.1152155686924174 0.5576195367071964 0.5907457404339491  0.1152155686924174 0.5576195367071964 0.3963809359334431  0.6202460967293077 0.6688509375969818 0.7440618626186406  0.6202460967293077 0.6688509375969818 0.5589240766271628  0.09301971027453279 0.8788464434908526 0.8057129855623278  0.09301971027453279 0.8788464434908526 0.6215093682763838  0.7557499875356086 0.6629419514118857 0.5343321026713651  0.7557499875356086 0.6629419514118857 0.3355998821193185  0 0 1  0 0 0  0 1 1  0 1 0  1 0 0  1 0 1  1 1 1  1 1 0  0.5181042733406177 0.3352322234089791 0.7005792047969526  0.5528557653130052 0.3352322234089791 0.73533069676934  0.56557569419431 0.3352322234089791 0.7828021176230323  0.5528557653130052 0.3352322234089791 0.8302735384767246  0.5181042733406178 0.3352322234089791 0.8650250304491121  0.1462773515659456 0.5074314354846614 0.6191394118289615  0.1805924582016996 0.5074314354846614 0.6465047962076372  0.1996359056826566 0.5074314354846614 0.6860489223663458  0.19963590568
[...]
<PointData  Vectors="f_11034-0"> 
<DataArray  type="Float64"  Name="f_11034-0"  NumberOfComponents="3" format="ascii">1.6207406659548961e-02 8.9817967379808526e-05 -7.0140036492157519e-03  -9.7619368061343664e-03 3.3971172861847426e-05 -5.3369459511929118e-03  1.6421301860307363e-02 1.4419547840277454e-03 -7.0774593473204011e-03  -6.8563580862075627e-03 -3.2856163408616872e-04 -5.0882236534697612e-03  1.7460120902446512e-02 6.5367389748792321e-05 -5.5373222699216509e-03  -1.9188583048093150e-03 7.9051994357003282e-04 -7.7601589111059961e-04  7.4975569800215108e-03 5.4640932662121085e-04 8.8434468750514719e-03  -1.4432146733963036e-02 1.4920582121742690e-04 4.4298207897594099e-03  1.3482666082520290e-02 -7.9682133424547371e-04 9.6667219185382295e-03  -1.2218527865192846e-02 -6.9737558493076807e-04 1.0878042665111798e-02  1.0207347561012934e-02 -5.7633180936456899e-04 -5.4253969736224473e-03  -1.5211598887162137e-02 4.0951870543544795e-04 -6.7300767536640667e-03  6.8104981490574269e-03 1.1033112314290537e-03 -3.4248979339737717e-03  -1.9285416759332531e-02 -5.9456744523566697e-04 3.3072890090468988e-03  1.5889121772352036e-02 6.3952335971754646e-04 -4.3161263302467527e-03  -7.3447866380640572e-03 -2.0305532565208363e-03 -4.9210072610039032e-03  7.5026020947688583e-03 -7.0141982644505313e-04 -6.8083342010097298e-03  -1.3546268965863840e-02 -2.8611063373101662e-04 -1.5956008675683544e-03  1.7735315124259427e-02 -1.5320839174867744e-04 3.9385129602931999e-03  -9.4911282468766889e-03 1.0319833971395675e-03 7.6372945673200540e-03  1.0454870848582194e-02 8.2519789153830364e-05 1.3050852612236770e-02  -7.4572607984428937e-03 1.4975696126334210e-03 1.0420387950333850e-02  6.5832302034436957e-03 3.0086988090480380e-04 -4.1267304622442935e-03  -6.6088619174684247e-03 -3.4532800792306530e-04 -1.6054942931402760e-03  1.5018474661168050e-02 -6.3248509689678011e-04 -5.0067348674566747e-03  -3.7231155794417584e-03 4.0630976103377462e-04 -3.0489689457130435e-03  4.8633719929715002e-03 8.1710224256119823e-04 7.9689891069255423e-03  -1.6998374062780961e-02 2.1151019599402072e-04 9.7942583036024922e-03  8.2575466265516727e-03 1.1696328261227534e-03 -1.3681426893924904e-04  -1.7393414981960394e-02 1.2957214389868385e-03 -7.3414269438675274e-03  1.1189558762661594e-02 3.3192295364950177e-04 8.6190557045046513e-03  -1.3396411363670624e-02 6.4872538116187133e-04 8.6584564042939596e-03  1.3012282632502559e-02 7.6842066388704085e-04 -1.0031141946173795e-04  -8.5684982925739953e-03 -5.7879998955650798e-04 -2.7164113867782632e-03  1.7330513382426541e-02 -1.1529630588972724e-03 -1.9748265624261480e-03  -4.2111261937561213e-03 1.6015999793394838e-03 -1.3785163170954100e-03  1.3156431349320923e-02 -3.8591861589612882e-04 8.1998469024743906e-03  -2.6412934299464234e-03 4.5458379403256485e-04 6.4882245949754386e-03  2.8007843784140893e-03 1.6320407802128331e-03 6.9457085309319799e-03  -1.4864061090861410e-02 -8.9790904192975634e-04 5.1215913431353188e-03  7.4134225356356984e-03 3.6429322978080931e-04 1.4325677345741756e-03  -1.2043214397267894e-02 -1.4608656459336640e-03 -3.6450293130773706e-03  1.3652230820763500e-02 -4.0236934128231195e-04 -3.7877477546352425e-03  -2.5831701653070035e-04 -1.4115594706245603e-03 -2.1232319129639745e-03  5.2005249813859870e-03 -5.0243823977334226e-04 -7.0389448303317644e-03  -9.3448675136121942e-03 2.2479712485152926e-04 -4.9148400011195560e-03  1.4448589644196709e-02 -2.5351776250084115e-04 -7.6100436465526564e-03  -1.3923980311148105e-02 1.2406236281066105e-04 -3.2076206374034924e-03  1.0614353520051665e-02 2.2629345300134865e-03 6.3878544537190243e-03  -2.6447602183302596e-03 1.8220298004666281e-03 7.5178720860815604e-03  6.1926603615990866e-03 9.2670309449510593e-04 1.4174170372715810e-03  -1.9038571598168061e-02 2.0211404169177071e-04 -4.9447607856957180e-03  2.7467862585147996e-03 -1.7385904343925600e-03 1.9643746395891122e-03  -1.4720346714049152e-02 2.4465097537787494e-04 5.9479498490612182e-03  1.0873049887596456e-02 -2.0974335013444140e-05 5.8962419658534961e-03  -8.5863029830346368e-03 8.6235232064492450e-04 7.7781541245143613e-03  1.2795408159061421e-02 8.0171671379880810e-05 -4.2327402034784333e-03  -8.1408454961006925e-03 -2.3130308979658817e-04 -3.5032459139872955e-03  4.9529901295933491e-03 -1.4453165478790289e-03 -4.8119185229144315e-03  -1.7111965221799762e-02 1.1344415139161602e-04 -4.2154348423584049e-03  1.7402582752780286e-02 4.6876449848237738e-04 -7.9559718730504072e-04  -5.1915721056527515e-03 1.8393010649559626e-04 3.2386870329761627e-03  1.2540536084671681e-02 -8.0380639498136113e-05 -2.5589407216550612e-03  -6.2213071083544306e-05 -4.5162124210449799e-04 -9.3557914507873714e-03  1.3875813191607474e-02 3.4812358893625489e-04 -1.1843292793803761e-03  -7.2218127522032088e-03 1.0214017182984504e-03 -4.0476268173664978e-03  9.1860563234840552e-03 -7.5580051706171999e-04 -5.2040008259786590e-03  -1.7052923254742103e-02 6.4646639062881104e-04 -5.7454527102533699e-03  9.7813115411983908e-03 -7.8174402252655030e-04 -5.6979718392969753e-03  -1.0204027240557884e-02 -1.5134975101630207e-03 -5.9733034842029600e-03  6.6181792790414784e-03 3.7956807031963878e-04 -1.3310755708185254e-03  -1.6427985492432726e-02 -3.4107329380312333e-04 -3.9849286362916032e-03  1.6774611161392783e-02 -2.0693553335250043e-04 7.4402627672530538e-04  -1.1449511194748555e-03 -2.3070795230787668e-04 -4.6266163209537142e-03  1.0281425633364809e-02 -6.9825959881182208e-04 -8.1606208415939355e-03  -7.1675525761233589e-03 -3.3440481064460597e-04 -5.5726698869000947e-03  6.8559885834462266e-03 -1.0747096304996484e-03 -1.1069247879345900e-03  -5.9215205618400491e-04 2.0648511889422255e-04 -3.0509914400023599e-03  1.1225378041883101e-02 1.0751147083845392e-03 -3.0715299446119949e-03  -9.7773284201209260e-03 3.6679636245936977e-04 -2.7403678059640837e-03  6.6033098045365909e-03 3.1633169308623645e-04 -2.4416744377437449e-03  -1.3256462265845856e-02 -1.0525482656911292e-03 2.0000933965653592e-03  1.5428227025045040e-02 6.8892510621166073e-04 7.9169922442998870e-03  -8.0825685756517295e-03 -3.8602968052045284e-04 8.6246307417921324e-03  1.1502628976025334e-02 1.5843669705115329e-03 -2.1374936730414029e-03  -1.4178756655544097e-02 -8.0078527070096602e-04 -6.1199447293212470e-03  7.5999781810588227e-03 -1.2920502447132487e-05 3.4001057653232449e-03  -6.9476599501380534e-03 -8.8521707668285006e-04 -9.3045029117584614e-03  2.8597404893062799e-03 1.1532528075077293e-03 7.0973523478992107e-03  -1.2399715552239758e-02 -6.9135563549041468e-04 1.2754813363598008e-02  4.6840989497749751e-03 6.5082282875841260e-04 2.4258363585368619e-03  -7.4891173726659458e-03 5.7343791633115125e-04 2.3851927036286839e-03  1.5193847141011635e-03 -1.3487474084319586e-03 -2.6915136994962248e-03  -1.2774969521136810e-02 1.2144295713381094e-04 -1.8774708765663334e-03  6.7900997618462336e-03 -1.1995505472720016e-03 -1.7178587377391463e-03  -5.1985877517841143e-03 -7.3956885804383923e-04 -3.7133018874242313e-03  1.3835954945649617e-02 8.1016359820954053e-04 1.0033737789737587e-03  -1.8491504243933806e-03 1.5681264316377689e-04 -5.8225875288009602e-03  2.2868062543215054e-03 -1.9343664183352968e-03 2.3773854900038011e-03  -1.5134123426975380e-02 -7.1996137181065678e-04 -4.8276314310971368e-04  1.3154159763387836e-02 -7.1205331339956436e-04 7.2974856901047019e-03  -3.9404641240555474e-03 -3.1561022687295794e-04 5.8237808260379982e-03  9.1892913335061745e-03 -9.9478643184419354e-04 -5.5454173996674046e-03  -1.6048995160149321e-02 1.3455226064027468e-03 -5.1023679286124578e-03  1.5693243058174197e-02 4.2912366591860889e-04 3.5823264494868404e-03  -9.3184832779244116e-03 -2.7061208420321628e-04 1.0089236994625713e-03  1.0221576633241082e-02 1.1446411878371354e-03 -7.2477447953331877e-03  -6.8359282623589623e-04 -2.1719709717991946e-03 -1.0154577868312824e-03  -2.0998952167552158e-03 -4.0913069390433591e-04 -4.5732838613269438e-03  -1.2908209782312427e-02 1.2270272573005319e-03 -5.8579608600196724e-03  9.6574405322765421e-03 3.1717543763636112e-04 -9.5091211857356774e-03  -1.2070885668992648e-02 -1.6451228754209271e-03 -8.3761136495361134e-03  9.4875099125094377e-03 3.3972330982595921e-04 -2.2042879670591261e-04  -5.2839201544503580e-03 7.6467163908544125e-05 -3.9530817216050802e-03  8.3788442657622853e-03 -6.1331087195694517e-04 -7.6996500167111478e-03  -1.5735333194354370e-02 -4.6126807946604217e-04 -4.9055513119072580e-03  6.9359626287917751e-04 -7.5731956447261308e-04 1.9587321846031326e-03  -1.4452113706826230e-02 4.4822473211089035e-04 -9.1747023625178559e-04  1.1012200895806018e-02 1.3269496815150687e-04 8.0940084516408091e-04  -1.4688693115135936e-02 3.0690644066399219e-04 -3.2199017208854801e-03  9.1033369934236334e-03 -9.4416715640322456e-04 -6.9563343605146986e-04  -9.2416209976875947e-03 4.0550020705014476e-04 -9.3791340724599045e-05  1.1861522410202958e-02 1.3388791810157897e-03 -1.6630475585856625e-03  -1.3688276321486699e-02 -5.4333089831782973e-05 2.9930560934391796e-03  8.4308384119720133e-03 -8.9267237221137767e-04 3.5152503975150488e-03  -1.1369734860928567e-02 -2.7762542575107533e-04 4.1446037265850041e-03  1.4223110015715846e-02 3.2842298548519592e-04 7.9403543989477500e-03  -3.6962309463330141e-03 -7.9034110321980419e-04 5.6565225750970487e-03  7.8581819352970123e-03 1.7897524570171855e-03 5.4651955572652261e-03  -8.4846256037347922e-03 -8.6231791017927649e-04 9.4720521845935261e-03  1.5819461351238320e-02 -6.7923536375022028e-05 5.8738710559153185e-03  -1.7533241565365002e-03 2.9219845900760365e-04 1.9006625656360367e-03  7.3920515558204003e-03 -1.1856354243680721e-03 9.0567209221940857e-03  -1.6009001755666753e-02 5.3610097120267597e-04 7.2044807578145863e-03  1.4812865974010801e-02 1.2536265679372446e-03 5.6894606358565787e-03  -6.0595252200380586e-03 -1.5481045478106358e-03 2.6043687784538029e-03  8.6266380141810876e-03 -4.3732773772242524e-04 -7.5365814544440602e-03  -4.7912619395620590e-03 5.5006565993662539e-04 -1.2313198346307855e-02  1.2320051747041424e-02 3.3217137609775384e-03 -6.3920525030950902e-04  -1.0571186408684159e-02 -7.8794705496650877e-04 -3.0748692733181225e-03  1.7739794769403842e-02 -3.9268513971626979e-04 5.4144250445626136e-03  -6.1327803217923835e-03 3.7435543138662769e-04 6.1372718099933186e-03  8.0636562682786534e-03 5.0870451172616243e-04 -3.5740759805979868e-03  -2.1688765102011880e-02 7.3935499220811874e-04 -4.0973665160040145e-03  1.3577472527247393e-02 -3.2848641538570133e-04 1.9041888304779902e-03  -1.1586243480720584e-02 -4.4875089345220554e-04 3.3177479964061280e-03  3.0565994236788760e-03 6.8787410123050488e-04 3.6904345182804158e-03  -1.2409834327382288e-02 -1.9759140435218181e-03 5.8782167854107914e-03  9.5323609859674103e-03 5.7621056539109884e-05 6.7422923065480768e-04  -9.9043789156076766e-03 3.2038861337629860e-04 -6.3180897322497155e-03  5.5796724424153621e-03 -4.2542567141878808e-04 3.3372489641535770e-03  -1.5231165123301232e-02 -1.7214085073938724e-03 6.6299968274555711e-03  9.3366115546748493e-03 -1.5164613015040118e-03 -3.6140267504352511e-03  -1.2172701525971528e-02 -5.1207481981858092e-04 -3.2366121089916862e-03  9.3060207833357070e-03 -1.0045358096662060e-04 5.6186000107883360e-03  -4.1281247224582065e-03 -6.6208953895774848e-04 3.0416962100606798e-03  1.0523636057772463e-02 -4.9988734535699926e-04 -1.1257710616794982e-02  -1.3196655062122658e-02 8.5015340521861276e-04 -4.3616589576031635e-03  1.2780576799235098e-02 4.2375448656863045e-05 5.8999109655991219e-03  -1.1643165501701361e-02 9.6551909020136252e-04 8.4288958426216500e-03  7.4097709417728259e-04 -1.2995789249229310e-03 4.2221375295202956e-04  7.4097709417728259e-04 -1.2995789249229310e-03 4.2221375295202956e-04  7.4097709417728259e-04 -1.2995789249229310e-03 4.2221375295202956e-04  7.4097709417728259e-04 -1.2995789249229310e-03 4.2221375295202956e-04  7.4097709417728259e-04 -1.2995789249229310e-03 4.2221375295202956e-04  7.4097709417728259e-04 -1.2995789249229310e-03 4.2221375295202956e-04  7.4097709417728259e-04 -1.2995789249229310e-03 4.2221375295202956e-04  7.4097709417728259e-04 -1.2995789249229310e-03 4.2221375295202956e-04  -8.2544519080707760e-03 1.5105040065444616e-04 1.4286015986244573e-03  -3.6627051973155884e-03 3.8123352639073918e-04 5.7057965019243484e-03  3.2688068891916578e-03 1.0407219462412339e-03 7.2744958545883582e-03  7.9423324642738744e-03 1.6540588438283207e-03 4.0026553665107878e-03  1.3358672147472411e-02 9.0431324027343040e-04 -1.9671957108959000e-03  -6.3717831664458898e-03 -8.8367302372440132e-04 4.3987907862142912e-03  -4.9998039067585855e-03 -1.1458679058005061e-03 8.6375824536372055e-03  2.8975396968063398e-04 -1.0709119933543976e-03 9.9445481255578238e-03  8.0654991493312022e-03 -1.3817058134189898e-04 9.3114853737190691e-03  1.3772579588422380e-02 5.6335891461964404e-04 5.3516117045646350e-03  1.5648157549607328e-02 1.2758115255047163e-03 -1.6450386093191680e-03  -4.2926386791904579e-03 1.0873620177576386e-03 7.1129692497622198e-03  -2.9207203190901800e-03 7.9122697397139357e-04 8.2582093132144898e-03  1.0483249970182384e-03 1.2544205244237425e-03 6.4428701882748166e-03  8.7744690866051519e-03 1.2396260960025639e-03 2.2041391837548199e-03  1.6347039805370486e-02 3.0474116498993537e-04 -1.3937766875382141e-03  -1.2474159918144229e-02 -6.6564586656126789e-05 8.1418349619656900e-03  -7.6303215052399426e-03 1.0415688375682588e-03 9.1345243041574594e-03  -5.7329683621363398e-03 1.4388994122042993e-03 1.1314274775220479e-02  -3.2965875483559836e-03 6.3299061719253454e-04 1.1539662292446039e-02  4.2112980802862729e-03 -5.4203303815121833e-04 1.0665485144455934e-02  8.0429323083936258e-03 -3.9191520039902886e-04 1.0529142157862286e-02  -1.2269064198734664e-02 -5.3222873051260975e-04 1.6622114609833753e-02  -7.7059341178398579e-03 -3.9871680506194964e-04 1.9897367168526529e-02  7.3322077103628238e-04 -1.1964671251827352e-05 2.0363834466223359e-02  8.7115008832739111e-03 1.4393253876179632e-04 1.9014953632402347e-02  1.2874723002973787e-02 -2.5508079786082150e-04 1.5284084941853343e-02  -1.4689088593130336e-02 6.2030329214594437e-04 -1.7335278264464357e-03  -6.7358495956843815e-03 1.6705623692019880e-03 -1.7042564070735347e-04  2.5517235619174840e-03 2.2825239122244612e-03 2.1248603793120931e-03  7.6900287376951270e-03 9.2599548319366063e-04 2.7069771320147235e-03  1.0199895677934012e-02 -2.2045085890327583e-04 -2.4959907522304381e-04  -1.9463324069718700e-02 -6.1313586028360065e-04 9.9879548634887773e-03  -1.6583495992658161e-02 -3.4442851747931279e-04 1.3732308585805373e-02  -8.0701076583370376e-03 -3.9028012893129078e-04 1.4856438490405917e-02  -1.9810026654056286e-04 -2.6483433650349698e-04 1.5068035316765819e-02  2.3850089396341913e-03 3.3115743504015586e-04 1.3316185506053606e-02  4.0463343763368874e-03 1.3418274641874019e-03 4.5669078692256240e-03  -5.9637163730740387e-03 -2.5098088006898574e-03 2.4635567758603707e-03  -3.6942292750646879e-03 -1.1695935892313155e-03 7.3381871772894101e-03  -7.9157598801309347e-05 -2.4541516123952837e-04 8.5444917659878092e-03  3.9928340660519927e-03 7.9132340806475449e-05 7.0226810062642073e-03  9.4519761103462902e-03 5.3690316929750975e-04 5.2196439302354437e-03  1.4307921209580684e-02 8.0740668661865060e-04 1.4948248287569106e-03  -1.4428909256612638e-02 5.8888235260321745e-04 5.2714730153657326e-03  -9.2642758566930036e-03 -1.8032045090564849e-04 4.3930504020768899e-03  5.7721133252868352e-04 -1.4556407420882767e-03 4.3407868799633384e-03  2.9445491974304369e-03 -1.4444983774849797e-03 3.3474393411010803e-03  5.2158753276448540e-03 -9.3554386066890935e-04 -2.1614063917637203e-03  -8.7537295294923510e-03 7.3959835241336363e-04 1.2016006082883510e-02  -3.7523410411350526e-03 2.8466984706493418e-04 1.3754796698913215e-02  3.0636115862339923e-03 -8.2760222066173501e-05 1.3700363352832498e-02  9.3793776103634520e-03 -1.8514722421991470e-04 1.3976073618350363e-02  1.4272306523233847e-02 -2.3205762466246569e-04 1.3356926909787362e-02  1.7082071307759367e-02 -2.3814037722631254e-04 9.6736627397596923e-03  -6.7957031498607637e-03 2.0705338219690773e-04 1.6696059539120959e-02  -3.2369884101922770e-03 -3.2649959854617530e-04 1.7980639512742647e-02  3.8500534047907673e-03 -2.5581126704819150e-04 1.7715526982891888e-02  1.0130651870099197e-02 1.1374425156691306e-05 1.8185175987104039e-02  1.2163960272330378e-02 1.3861392092305756e-04 1.6708039221780591e-02  -9.6609337647416294e-03 -3.0833188031856524e-04 6.4151255601028485e-03  -5.5957409604439814e-03 -8.1174196943389107e-04 3.9163773378199044e-03  3.2605299673803376e-03 -1.2081462559397559e-03 3.8421424209751855e-03  5.6581757542536791e-03 -1.0830029986926225e-03 6.4860133432405338e-03  6.6835529445290077e-03 -8.1128193654273633e-04 4.7076176821096065e-03  -5.0051738066704708e-03 7.8322430378682209e-04 2.4682206501136796e-03  -3.3439167777400245e-03 1.1089374403268377e-03 6.5965607274611135e-03  3.6202334055860882e-03 1.6579601111590110e-03 6.7733607428734329e-03  1.2634020367590809e-02 7.9592339911417414e-04 5.9527461215141521e-03  1.5401429314572139e-02 -2.4628599021012213e-04 1.1953549401800159e-03  -1.5700128164958218e-02 1.6374951426304402e-04 1.4529951630414054e-02  -1.0885988630337582e-02 -4.2132843967360373e-04 1.6926832503277981e-02  -3.5924743515736582e-03 -8.0384072952313895e-04 1.8110099881336755e-02  2.0137681956539067e-03 -6.5445200431867218e-04 1.7742579112729331e-02  4.5523665951994145e-03 2.8311113296044128e-04 1.4356275538986689e-02  -1.3590122650176626e-02 6.4037323238139436e-04 -4.1642059005186100e-03  -6.0373334968711403e-03 -1.2621551904367110e-04 -5.2596256407592046e-04  -2.0851724865273463e-03 -5.4283567961530260e-04 4.8853782065979385e-03  2.1827968294047331e-03 -6.2680399190998546e-04 7.2730774367788485e-03  6.5237962711436814e-03 -4.2636284747802646e-04 6.7933930102496076e-03  8.5261558521485814e-03 2.4015920616574272e-04 4.4453709682129756e-03  -1.3002094425010362e-02 7.1514518419841014e-04 1.3299095517214490e-02  -1.0190286163828444e-02 5.8038763821287038e-04 1.4789919005266708e-02  -4.2679656522993095e-03 8.0339108829409782e-04 1.5107213823996197e-02  2.4401738921191302e-03 8.6378034442895321e-04 1.5096802336116729e-02  7.3696515105498017e-03 2.7628328050995397e-04 1.4968139596370427e-02  1.0392807279537588e-02 -1.9756300725926555e-04 1.3322007351139857e-02  -9.4777220511383965e-03 -4.0800159718090755e-04 4.9302722164208095e-03  -7.9632215871883825e-03 -8.4707810630614650e-05 1.1753580504653360e-02  -4.8282190406379499e-04 1.3246721244281607e-03 1.4948675013316445e-02  7.4131966886368554e-03 2.1416566158806529e-03 1.5658889575887722e-02  1.2028606047035068e-02 2.1059324778128588e-03 1.3675336173721233e-02  1.3718370891199313e-02 1.6415833620833879e-03 7.8713640300865292e-03  -4.5445820022548778e-03 1.4590521027029492e-03 2.0622181426149400e-03  -4.2098571462367510e-03 5.8465886835066443e-04 7.6296410107020152e-03  3.7003983210556426e-04 5.9892698840985923e-04 1.0550813948463729e-02  7.9675074241044672e-03 8.9692658474072376e-04 1.0135482073211816e-02  1.3246328462019417e-02 -2.6349516124584554e-04 7.8823155048266588e-03  1.6573667397616530e-02 -1.2505495733879520e-03 3.3722527553897686e-03  -4.2262688079391045e-03 1.1174750384704399e-03 1.2042760328844816e-02  3.8210535416817730e-04 3.9563949789507162e-04 9.0443237287072004e-03  1.0672204522807377e-02 -6.8217426754790594e-04 9.0472446693695887e-03  1.3898405826548771e-02 -8.9860712097734527e-04 1.1019231464335415e-02  1.5349011067458649e-02 -5.7461530800973122e-04 1.0421563768539645e-02  -1.4607600416155818e-02 -1.0887056156659654e-03 1.2056060497128833e-02  -1.3584819961238248e-02 -7.9868513116727251e-04 1.7277358192465144e-02  -9.6796853631045971e-03 -3.4757535180048868e-04 1.9921117547618997e-02  -4.2108697317530582e-03 3.4412150463914581e-04 2.0198436269358574e-02  -9.4138360717498538e-04 1.2524811579112231e-03 1.7941068175402416e-02  2.0440661462906343e-03 2.1828013453668886e-03 1.1384523116234077e-02  -1.1138551001203038e-02 -1.6120386487222726e-03 9.9