<?xml version="1.0"?>
<VTKFile type="UnstructuredGrid"  version="0.1"  >
<UnstructuredGrid>
<Piece  NumberOfPoints="10687" NumberOfCells="56126">
<Points>
<DataArray  type="Float64"  NumberOfComponents="3"  format="ascii">0.4706328524869254 0.3352322234089791 0.8777449593304169  0.4706328524869254 0.3352322234089791 0.6878592759156478  0.1034871134917706 0.5074314354846614 0.8066156942878907  0.1034871134917706 0.5074314354846614 0.6093728192209301  0.1551675959173425 0.1700780340113893 0.875250033073221  0.1551675959173425 0.1700780340113893 0.6887864874752977  0.6669562922359631 0.1602970868684059 0.4523658258931287  0.6669562922359631 0.1602970868684059 0.2552523885148201  0.8003443519139738 0.2822561447883644 0.5930006311386973  0.8003443519139738 0.2822561447883644 0.4029796476326826  0.3457009019302847 0.8221886364192141 0.5097404498597131  0.3457009019302847 0.8221886364192141 0.3235132646209543  0.6237009005988635 0.4378266539505478 0.2728752701731033  0.6237009005988635 0.4378266539505478 0.07525023687650988  0.4405325061441246 0.3736500425446249 0.5430824476200887  0.4405325061441246 0.3736500425446249 0.3511080030756988  0.4729985941354655 0.6549215713426292 0.4263803603294994  0.4729985941354655 0.6549215713426292 0.2440419383971545  0.8497539722219983 0.8932368319026851 0.9216855557035772  0.8497539722219983 0.8932368319026851 0.7221440259988454  0.8256793108961468 0.7200648726620793 0.7639372733217841  0.8256793108961468 0.7200648726620793 0.5739950021841588  0.1069186229833285 0.6471377132733304 0.4117225740732061  0.1069186229833285 0.6471377132733304 0.2311622835575079  0.3822781833640896 0.5574912839699678 0.9533440625467628  0.3822781833640896 0.5574912839699678 0.7623135689543359  0.8147419951305515 0.2077660562437428 0.3196503739819442  0.8147419951305515 0.2077660562437428 0.1385979793947633  0.1972576198188177 0.3008180057196627 0.3694160647549479  0.1972576198188177 0.3008180057196627 0.1758758540439013  0.8360164207720789 0.8411691785045133 0.5662074074775733  0.8360164207720789 0.8411691785045133 0.3702535016975271  0.5870354117953491 0.5660469816113 0.5884142613115635  0.5870354117953491 0.5660469816113 0.3889691321045217  0.4682471314611975 0.1448489912149886 0.8421094343015803  0.4682471314611975 0.1448489912149886 0.6438471092958917  0.6940717249633667 0.4607923761098732 0.8373193364331413  0.6940717249633667 0.4607923761098732 0.6563146310164385  0.785995235512619 0.6118189069427523 0.2338427776004194  0.785995235512619 0.6118189069427523 0.03467503973286271  0.4711608296195493 0.8399200905079074 0.7767650594383581  0.4711608296195493 0.8399200905079074 0.5818925919184107  0.1801403835158435 0.888221913884045 0.990408893193204  0.1801403835158435 0.888221913884045 0.79844056802017  0.379674926453424 0.8536855703585062 0.2351921571476348  0.379674926453424 0.8536855703585062 0.0367335871861858  0.1197640691976752 0.7241686785603229 0.701197367823817  0.1197640691976752 0.7241686785603229 0.5081196252826443  0.6823045980785605 0.2275345134410378 0.8110132454137582  0.6823045980785605 0.2275345134410378 0.61986059688904  0.2881707672229488 0.1093262749891311 0.3184398658161565  0.2881707672229488 0.1093262749891311 0.1241046849491645  0.7774679126000535 0.7954105823147033 0.3480073147218777  0.7774679126000535 0.7954105823147033 0.1599755114172284  0.8821149028858677 0.5311745557285129 0.5925105119985196  0.8821149028858677 0.5311745557285129 0.4060578796192374  0.3071209529928384 0.1043048214911635 0.9617263867358654  0.3071209529928384 0.1043048214911635 0.7749365953088263  0.3525143821419499 0.3169473982787399 0.2291485270263934  0.3525143821419499 0.3169473982787399 0.04052806879835649  0.2181911936865633 0.3467435072607196 0.7841054602954397  0.2181911936865633 0.3467435072607196 0.588251967758406  0.2052926494692249 0.6881980115813477 0.9811716612959469  0.2052926494692249 0.6881980115813477 0.7955537425052899  0.4419455308138652 0.5869557230442789 0.7175835947230391  0.4419455308138652 0.5869557230442789 0.5256597562153662  0.294665186602361 0.6297354240358883 0.3515875299946371  0.294665186602361 0.6297354240358883 0.1633028021985535  0.3227169748663333 0.5398714276283029 0.5639795035497261  0.3227169748663333 0.5398714276283029 0.378333216495109  0.1114385766623374 0.8685745816913473 0.3040524992463673  0.1114385766623374 0.8685745816913473 0.10713307046516  0.5768519201823341 0.6856015444446069 0.9383266886417795  0.5768519201823341 0.6856015444446069 0.7525040529472974  0.387087532636763 0.1213997847509466 0.6253730097825071  0.387087532636763 0.1213997847509466 0.438190523979103  0.6062288422037078 0.262839894910132 0.99341968440379  0.6062288422037078 0.262839894910132 0.8118440972228763  0.1052974916493386 0.8900083661633854 0.5164136557566272  0.1052974916493386 0.8900083661633854 0.3321874517919751  0.5805007131695868 0.7658611554335449 0.5679064974425381  0.5805007131695868 0.7658611554335449 0.3867126908397862  0.8516646744159143 0.2821683149545192 0.9409572112451419  0.8516646744159143 0.2821683149545192 0.7455714212800446  0.52404992415023 0.2780871128774421 0.3851725541416735  0.52404992415023 0.2780871128774421 0.1971507048530348  0.2116566820145898 0.1397944573048898 0.5132462827415352  0.2116566820145898 0.1397944573048898 0.3173628533488575  0.8787093807723328 0.5359917439672732 0.3883784795565568  0.8787093807723328 0.5359917439672732 0.198701352242609  0.6144164698667431 0.7844219822337941 0.1881254131007406  0.6144164698667431 0.7844219822337941 0.006043874964533597  0.4594895236684425 0.6108427328851304 0.2214183277823102  0.4594895236684425 0.6108427328851304 0.02582458776000437  0.5846912998959422 0.1912564379102963 0.6442011846733058  0.5846912998959422 0.1912564379102963 0.4471094609561432  0.4376617605251478 0.8509256947182723 0.985861774998762  0.4376617605251478 0.8509256947182723 0.7867071047808379  0.6502976040252852 0.6086550516104462 0.3753306749972641  0.6502976040252852 0.6086550516104462 0.1854211248996367  0.8876636186541877 0.5622378810098793 0.9503971839153895  0.8876636186541877 0.5622378810098793 0.7599168786902926  0.2133557149328592 0.4585472573307414 0.2413300010571164  0.2133557149328592 0.4585472573307414 0.05295022537550523  0.6438645437873705 0.9022569832392023 0.986223980555191  0.6438645437873705 0.9022569832392023 0.7989562306065728  0.1854927726319018 0.4330096691290367 0.9853296730958092  0.1854927726319018 0.4330096691290367 0.8023316876953659  0.09695224934892709 0.6455243829394482 0.2269514078741489  0.09695224934892709 0.6455243829394482 0.03525945886312525  0.1150316721987143 0.3549716681973091 0.5871978999251575  0.1150316721987143 0.3549716681973091 0.3879609486143939  0.5757350151836823 0.4665368634303342 0.996037568322176  0.5757350151836823 0.4665368634303342 0.804635477636761  0.1011258347983123 0.1590597171257113 0.2378999832054884  0.1011258347983123 0.1590597171257113 0.04165775047141082  0.4937961521621999 0.1130252749494917 0.2121370539057493  0.4937961521621999 0.1130252749494917 0.01584979746588065  0.2796333239519485 0.8321790983111345 0.8313735371451578  0.2796333239519485 0.8321790983111345 0.6411738078935798  0.6670817002427245 0.3996340023285802 0.6661703992759127  0.6670817002427245 0.3996340023285802 0.4807705913442979  0.5139914323799297 0.8842491428733793 0.4342752682662568  0.5139914323799297 0.8842491428733793 0.2344875384254968  0.9036215136064625 0.9017721207810987 0.2156155030609907  0.9036215136064625 0.9017721207810987 0.03338198835358491  0.8850331270919829 0.1070874232410335 0.7378892180036393  0.8850331270919829 0.1070874232410335 0.5394112991597327  0.7061591093009325 0.3810690626819092 0.4399816354879634  0.7061591093009325 0.3810690626819092 0.2520717392923854  0.7617678714839212 0.7144331728793709 0.9511940286569709  0.7617678714839212 0.7144331728793709 0.7703826691334883  0.8530869996603592 0.4103543703954326 0.2227979277895693  0.8530869996603592 0.4103543703954326 0.02673489421551535  0.7753772064547346 0.1088590128627752 0.9731649464759533  0.7753772064547346 0.1088590128627752 0.7861020919010442  0.1246681246167302 0.1310148493942221 0.6883620921281157  0.1246681246167302 0.1310148493942221 0.4982651613712048  0.270755122579547 0.6310956435431518 0.808149283268402  0.270755122579547 0.6310956435431518 0.616041978421889  0.8779458547471886 0.4546397739551304 0.7816436885678562  0.8779458547471886 0.4546397739551304 0.5940258508268208  0.4166014913878097 0.4652268640852085 0.3494357886739298  0.4166014913878097 0.4652268640852085 0.1542598315164533  0.6786285008212247 0.8743089140879927 0.7095600510588536  0.6786285008212247 0.8743089140879927 0.5096335519371944  0.6529346925218172 0.235424933900179 0.2277364041219512  0.6529346925218172 0.235424933900179 0.02872325435473627  0.4578239511648054 0.1001606962784116 0.405464599085457  0.4578239511648054 0.1001606962784116 0.2213989182469846  0.8752393003034642 0.1150781083147004 0.5276814692699038  0.8752393003034642 0.1150781083147004 0.3331964711550469  0.1152155686924174 0.5576195367071964 0.5907457404339491  0.1152155686924174 0.5576195367071964 0.3963809359334431  0.6202460967293077 0.6688509375969818 0.7440618626186406  0.6202460967293077 0.6688509375969818 0.5589240766271628  0.09301971027453279 0.8788464434908526 0.8057129855623278  0.09301971027453279 0.8788464434908526 0.6215093682763838  0.7557499875356086 0.6629419514118857 0.5343321026713651  0.7557499875356086 0.6629419514118857 0.3355998821193185  0 0 1  0 0 0  0 1 1  0 1 0  1 0 0  1 0 1  1 1 1  1 1 0  0.5181042733406177 0.3352322234089791 0.7005792047969526  0.5528557653130052 0.3352322234089791 0.73533069676934  0.56557569419431 0.3352322234089791 0.7828021176230323  0.5528557653130052 0.3352322234089791 0.8302735384767246  0.5181042733406178 0.3352322234089791 0.8650250304491121  0.1462773515659456 0.5074314354846614 0.6191394118289615  0.1805924582016996 0.5074314354846614 0.6465047962076372  0.1996359056826566 0.5074314354846614 0.6860489223663458  0.19963590568
[...]
<PointData  Vectors="f_11034-0"> 
<DataArray  type="Float64"  Name="f_11034-0"  NumberOfComponents="3" format="ascii">-1.2973060643445359e-02 9.5227006029929286e-04 -3.4932182410265826e-03  -4.9418996516032276e-03 -5.6388496788466224e-04 4.3334189073265649e-03  -4.3503742598778013e-03 -7.2074337592716541e-04 -4.4236151007343702e-03  -1.1253383819200902e-03 3.3403460756055501e-04 4.0349457684747182e-04  -8.3133069635481713e-03 7.5944386526049720e-04 -3.0270461226171554e-03  1.8055958400519088e-03 5.1863662163830862e-06 8.3546145379732916e-04  4.4871831446115784e-03 1.3513969445783423e-03 -3.4739589961094975e-03  4.4870314384857042e-03 2.3001193806572039e-03 2.1006721216732956e-03  9.7443101495804946e-03 -4.4012111025479810e-04 -3.4268617528366461e-03  1.4402480512743876e-02 3.9547858684647289e-04 3.9645281057914443e-03  -5.7962465904885969e-03 8.9708913628118231e-04 -4.1677711711745231e-03  -9.2660662943452980e-03 -3.0297383962406385e-04 6.7753592606725689e-04  -1.5144367855561766e-03 4.6977513447303624e-04 -3.1549096755710900e-03  -4.1760469312555426e-04 -2.2198645437160004e-03 1.9297567248623203e-03  -5.3575971453277589e-03 6.5883324760293994e-04 -4.5224917396883540e-03  -8.2693529889078920e-03 2.6076942810726758e-03 1.7064199032812719e-03  -1.1806404402093051e-02 7.8256692889209676e-04 -4.8292571834137876e-03  -1.3922682352493225e-03 -3.8740090832221777e-04 -2.1259459965591762e-04  6.0082703675764853e-03 6.5045343944925246e-05 -3.3106040910200964e-03  4.2781149380673161e-03 3.5222263543694294e-04 4.1112500309002627e-03  1.1267711408630400e-02 3.9061788700894861e-04 -2.1299540920382632e-03  9.6671808689322847e-03 7.7944918901209524e-04 1.1180682249105345e-03  -1.1551139986610381e-03 -1.2755650420074095e-03 2.4604408092755812e-04  -3.1655028449128703e-03 2.2676520645887408e-03 -1.2231168611770752e-03  -3.4655575470244797e-03 1.1056329845626643e-03 -1.7442354543856387e-03  5.8960300586450819e-03 1.2186252248914381e-04 3.6709589736586886e-03  1.5462873348236315e-02 1.1530199167047472e-03 -1.2123940833662118e-03  1.5297637058808836e-02 6.6026725037667835e-04 2.4562769651810387e-03  -3.0880209176369564e-03 -2.9299311852995125e-03 -3.5135767600047154e-03  -1.3588587044711610e-02 6.0875790888270480e-04 4.8750716799983518e-03  1.2656772266984310e-02 -1.4324586110583727e-03 -3.2017778093718402e-03  6.6052455655679536e-03 -1.2433108174808554e-03 3.9252112740238241e-03  6.5313277627844502e-03 1.6677513523258977e-03 -4.3455501593298602e-03  -2.1383989267733500e-03 -8.0116133219073780e-04 3.8753698199715651e-03  1.8901283268924530e-03 9.6750805788479804e-04 -3.4032265756813230e-03  -4.0702895067932510e-03 -8.0727732845174086e-04 4.8967773773602868e-03  1.2092891719178746e-02 -1.1222285354760089e-03 -4.4870545379293936e-03  1.0998215469281913e-03 -3.7249911494202652e-03 1.0482153953270977e-04  9.6249696079173316e-03 1.3797905092629865e-03 -3.5475709627498520e-03  4.3746330481614273e-03 -5.1308086254002135e-04 4.1949909007711937e-03  6.8565489400261468e-03 6.4683122501761126e-04 -5.9226164105826296e-04  -9.1454189579072455e-03 2.8083817190270393e-04 2.4757589542184120e-03  -4.7008974270339914e-03 -3.0084664596421995e-04 -5.0179075680773788e-03  -4.4060890659470570e-03 -1.1469387859660726e-04 5.3687986034062799e-03  -6.7208090975698735e-03 1.7756165267905595e-04 -4.8272440989481436e-03  -3.0078748274347104e-03 6.8984512306872255e-04 3.8113599626699930e-03  -1.0756223261198154e-02 9.7828704454639304e-04 -4.3619673398408963e-03  -6.9525945329181895e-04 -1.0538128516888014e-03 3.9892435997107420e-03  2.5427135869783195e-03 -6.9603724485469315e-05 -3.5325431429594168e-03  9.1723887552268273e-03 3.2630307246343145e-03 4.3987990398893203e-03  -3.0318932192512048e-03 7.3113647247590146e-04 -3.1020161779963754e-03  -4.8830670038294234e-03 -4.0986973524996035e-04 2.8570684297006448e-03  3.8012352037707447e-03 -2.4876232131190645e-03 -1.1128603940955338e-03  5.0491087225019759e-03 -3.3158103100580831e-03 5.3013795498444323e-03  2.2228940933368478e-03 -1.8034030158400713e-03 -9.0430222102119695e-04  8.1779194221269259e-03 -1.6216121488408049e-04 -1.8010558461953406e-04  -4.6761190354703188e-03 -4.0275152899131090e-04 -4.0168824797002494e-03  -4.0716017527692525e-03 -2.4652117623618782e-03 4.7481910013290017e-03  -4.0128728516869083e-03 1.7715993853242163e-03 -5.4082513710030020e-03  -4.8088848957008948e-03 -6.1199327299301927e-05 5.1113570424981929e-03  -2.2813196309497742e-03 1.3625177869962472e-03 -2.8574437722748663e-03  6.0469385919658192e-03 -5.0198860961267607e-04 5.5651597168111149e-03  -3.4081770609407334e-03 3.7519770567526482e-04 -5.7102982131039624e-03  -1.3913433543330835e-02 -5.0873216349093167e-05 2.9014226791570430e-03  4.4475080926578486e-03 -6.5705060577874754e-04 -2.1684979849428457e-03  -8.1695164575079464e-03 7.6708925399536032e-04 2.4616378516561224e-03  -6.8924489990181302e-03 -1.4687679624443429e-03 -2.6439569014355879e-03  -7.2829367975885580e-03 -8.4331370473693880e-05 3.4716049960499349e-03  -8.6830646042577019e-03 -3.9942525970951379e-04 -2.9477838263537543e-03  -8.1335350468254471e-03 -7.4821128158433130e-04 6.8750203412287184e-04  -2.3429774301000502e-03 6.2114768880470724e-04 -1.2450207296624653e-03  -3.4019727873628572e-04 -8.7360144961610921e-04 2.9288602712514078e-03  1.1864127085620252e-03 -3.3006434317125858e-04 -1.6541197383983170e-03  -2.6562005927207458e-03 -5.5684017282142662e-04 6.8605104660906992e-04  -6.6484394375052117e-03 -1.0185427444435182e-03 -2.8046033330031512e-03  1.0318278076060403e-03 -1.0941123363004904e-03 1.7208074325000095e-03  -1.4442320800885382e-03 7.0147285758444494e-04 -1.9877156413572643e-03  2.5886972367147968e-04 9.7706026516404033e-04 4.0087729909778829e-03  7.8210570308521652e-04 -5.5303778249396875e-04 -1.4651510732822050e-03  -3.3330375279691836e-03 -7.2449253843200425e-04 9.4368804804053968e-05  -7.0161119980107489e-03 -3.3344772676521602e-03 -4.6516363875579890e-03  2.7473647735076190e-03 4.4836154842646867e-04 4.2975543632280348e-03  7.8983121198992583e-03 3.7319263559960339e-04 -4.4495303974017904e-03  1.0941063246001690e-02 6.3509806173295876e-05 3.5615107925834476e-03  -2.6771676234984107e-03 4.7356744156452468e-04 -3.9094252859960465e-03  -4.9697650555204130e-03 -6.3141060239224112e-04 5.1855448755540679e-03  3.1692739589325981e-03 9.8345214259719501e-04 -3.7506150876369811e-03  -1.5214807099953886e-02 1.8219285827920217e-03 3.6188252127000121e-03  7.7102205857096026e-03 -5.2959107131806131e-04 -6.6586834498399213e-04  1.5326375415961191e-02 -2.6898369123231377e-03 2.8629961966860819e-03  -1.2250792487400221e-03 -1.3066088895625147e-03 -3.4914833884476600e-03  4.2745723734508101e-03 -1.1023031119447578e-04 3.2051955098718063e-03  -1.1272465062306112e-04 -5.1233162001702653e-04 -2.6741010230206504e-03  -1.5170521105464408e-03 1.7311024833316537e-04 4.3438491480544310e-03  -6.3556118382781749e-03 1.2242103770981360e-03 -4.8640379824299610e-03  -8.2701957660455214e-03 1.0133102254682863e-03 2.3486390142621141e-03  -9.0127499289139408e-04 6.2880069407363775e-04 -1.1997486397174800e-03  1.7430584718462030e-03 8.6368557006801319e-04 1.7339928082371326e-03  -3.1426192216765362e-03 -1.7403176744508117e-03 -1.8457049045370591e-03  -5.1528134842328864e-03 -1.2776725556298981e-03 5.4880981343447821e-03  2.8558392425424247e-03 -1.1222271307388591e-03 -3.1473332609450620e-03  1.7317204873688579e-03 -1.5252956806961076e-03 2.8122316290489836e-03  -1.2595083218616857e-02 -2.6797703385750583e-03 -3.8010890871535709e-03  -4.8721861063110135e-03 -3.1110983429355757e-05 1.6431451633718483e-03  4.5848430644235810e-03 -1.2449952328259020e-03 -2.8909589530309058e-03  -6.6371573617783947e-05 1.0643917447200937e-04 1.6251855201909764e-03  -4.6999959202495738e-03 6.0498121792389235e-04 -2.6761364328514374e-03  3.3547472857151843e-04 -1.0459674024057130e-03 1.0675968566653052e-03  -5.9918474514480333e-03 2.6219112590623560e-03 -1.2270480621385893e-03  -2.5861425366427589e-03 5.8907660097815093e-04 3.9625451140199233e-03  -6.9765866534830826e-03 4.2566352337126593e-04 -4.1702612451161945e-03  -6.3023863906163284e-03 -8.0359131070456731e-04 5.1371585156474026e-03  6.1632246121301731e-04 -1.4855371602360873e-03 -3.7080505629319025e-03  -5.8639470599717745e-03 -3.6502552448143609e-04 5.2347122806004082e-03  -1.1807733751723098e-02 -4.3824993907013777e-04 -3.3721141571963660e-03  -2.8142761886537425e-03 -7.7417386825271426e-04 4.1273339227641788e-03  7.6813703980629184e-03 -3.9342038457899073e-04 -1.4667491258549574e-03  -1.1549304709095409e-03 2.7979956076922192e-04 5.3782949977479811e-03  4.0391832438710975e-04 -1.9255032274010731e-03 -4.4328019819606336e-03  -1.5036535938972215e-03 1.0902181085162929e-04 3.6757876163062767e-03  -5.0422420217444914e-03 -5.8083767204934855e-05 -2.8490039574834728e-03  6.3266448604309814e-04 -1.5293134781986262e-05 1.8821929954113568e-03  -7.1182261155809342e-04 -1.8310052371997877e-04 -4.6913465656591670e-03  5.8854489929092649e-03 1.5018125803376091e-03 5.4703704517032768e-03  -4.2882576416000586e-04 9.8886637352509641e-04 -3.0111204720557273e-03  1.3244590681501462e-03 5.1616315471305236e-05 3.5904480269842907e-03  4.9255796953205401e-03 -7.0340837544295503e-04 -3.7864443044583001e-03  1.7493000906390779e-03 -4.9477844533262361e-04 4.1065256748450807e-04  1.9293367176538539e-03 -5.1931010089344175e-04 -2.5512150444467227e-03  1.4141419608548486e-02 1.2338572226053819e-04 4.2331363108135704e-03  6.5873088375872409e-03 -1.1116566661059906e-03 -2.5739364661760173e-03  1.8480171951427854e-03 7.8274624319026097e-04 2.1027674173565488e-03  1.1634131090749341e-02 2.7623688842234560e-03 -3.6087570392764725e-03  6.2747037353875663e-03 2.9404992543865496e-04 2.8343790045750779e-03  6.1456542728836093e-03 3.7300309215713111e-04 -5.8379712565388205e-03  3.8625508921996299e-03 1.1027689007889370e-04 4.9926502613314066e-03  -3.4310104933351578e-03 1.0552835858109676e-03 -1.2972349129364751e-03  -1.2011591150158398e-02 3.6267442321938240e-04 4.0110447460281759e-03  -4.0340139807874091e-03 2.7451534869517868e-03 -3.2972213893714009e-03  -1.7033545651642149e-03 -4.7549048976809487e-05 4.3323476975606918e-03  4.9669402867582053e-03 8.2785850064875704e-04 -5.8551639773178382e-04  3.9259164704228610e-03 1.8915783641875452e-03 1.6937432733378408e-03  -5.4961315532702408e-03 -1.7425706568840046e-03 -3.6943788317331627e-03  -3.1175682915145276e-03 1.7965011294905284e-03 3.4605512180099860e-03  1.2317430382475332e-03 -2.5540706047128084e-04 -4.5412491706666863e-03  -1.9911208655003349e-03 -3.7525545865703180e-04 5.6653884450075425e-03  7.0935591504658543e-03 1.5071085542625370e-03 -2.4824073689107217e-03  5.2794312546907357e-03 1.6133804529565017e-03 2.3828623558642694e-03  3.1681851274099334e-04 -1.0170941499145231e-03 -4.9754084542136777e-03  2.4088302876201268e-03 -4.5580012901352775e-04 1.1803566175445328e-05  -1.2842156996281624e-04 -8.3717476580960387e-04 -7.9788501738507189e-05  7.3929952998516716e-03 -9.2145493115966320e-04 4.4224047135163124e-03  -1.0445239598378835e-03 -9.4914921401532352e-04 -1.1099017548529566e-03  -1.2534631802343732e-03 2.1504528206277430e-03 3.6849682170069205e-03  4.9610040971914586e-03 -7.1286190678835379e-04 -2.5612738469741967e-03  2.4842675582935356e-03 -7.3198741060227573e-04 1.3993830430678836e-03  -1.2337309557889052e-02 1.5376317403210024e-04 -3.5566587889695571e-03  -9.2159811028877207e-04 -1.2432102442824014e-03 2.8566034436129412e-03  9.0887707921496665e-03 1.2346346821241368e-03 -3.8340038976040721e-03  1.2596841252556600e-02 2.4669055225047241e-03 3.3620553239626255e-03  1.4359492403708652e-04 -2.8285048421053394e-04 1.5138884376391397e-03  1.4359492403708652e-04 -2.8285048421053394e-04 1.5138884376391397e-03  1.4359492403708652e-04 -2.8285048421053394e-04 1.5138884376391397e-03  1.4359492403708652e-04 -2.8285048421053394e-04 1.5138884376391397e-03  1.4359492403708652e-04 -2.8285048421053394e-04 1.5138884376391397e-03  1.4359492403708652e-04 -2.8285048421053394e-04 1.5138884376391397e-03  1.4359492403708652e-04 -2.8285048421053394e-04 1.5138884376391397e-03  1.4359492403708652e-04 -2.8285048421053394e-04 1.5138884376391397e-03  3.0777087178219665e-03 -6.1961187482792088e-04 3.6832523838079972e-03  1.1665969542891142e-02 3.7952533266083931e-05 2.8642997105665442e-03  1.7177782903588172e-02 6.3865647445651534e-04 2.9731584728076420e-03  1.1928915501585544e-02 8.2906812413898628e-04 1.9090557607706041e-03  -3.3804579300701480e-03 1.7635591723808401e-03 -2.2841641014307930e-03  9.6523636147259791e-03 -7.8185276287907489e-04 1.6506128752014975e-03  1.6377430739358309e-02 -2.1313567396936588e-03 2.3858175657431738e-03  1.9920900703162464e-02 -1.7447078864154819e-03 1.4615084229066637e-03  1.8601398010955301e-02 -1.4120386122534918e-03 -7.3755896389754352e-04  1.2562634736672173e-02 -1.9071620421647322e-03 -1.6024249430087523e-03  3.5254162635908132e-03 -1.9036711013835567e-03 -2.6078583969361422e-03  1.1193047608293137e-02 1.8017580083352412e-03 2.6707048480883308e-03  1.4935358432239592e-02 1.3725557876581916e-03 1.9262443845921053e-03  1.3091929661301273e-02 5.8884831159512378e-05 1.2588369742509711e-03  3.1787726389467109e-03 -9.1388082951111637e-05 -8.9757293177404488e-04  -4.8819724575504845e-03 1.3456191164525717e-03 -2.8253516716180396e-03  8.4679784952839589e-03 1.3982589895262464e-03 3.2297360764410371e-03  1.6678332470343685e-02 2.1840510968738872e-03 2.0256239173673447e-03  2.4166694074572944e-02 2.8794188561775047e-03 -3.3492939232410173e-04  1.9337272600180876e-02 3.3250248806640770e-03 -1.6503995426465526e-03  1.1927550225529387e-02 3.8079098362694477e-03 -2.5526324117476017e-03  8.6569806451589713e-03 2.2477452229365986e-03 -3.8812360542894546e-03  2.1512918447151624e-02 -1.4939269065088780e-03 3.6781654923144424e-03  2.5488888101400577e-02 -2.0588921377338726e-03 2.0267179776019151e-03  2.6216361339303641e-02 -2.1579653049573532e-03 7.1066258546670044e-04  2.3650959209486375e-02 -1.8903087730855759e-03 -1.8390823829291712e-04  1.8253860821060702e-02 -1.3885778520850089e-03 -2.1385543527698576e-03  -4.9789223253992685e-03 -8.4983758452453651e-04 1.2884574864083811e-04  -3.9208706203304061e-05 8.7164245692844400e-05 -9.5480450061240739e-04  7.1927996909609141e-03 1.0988351000908786e-03 -2.9692210432745291e-03  6.7483172987389088e-03 1.6699700883988072e-03 -3.0540095267526097e-03  1.7787431471521402e-03 1.3421813889655529e-03 -3.4496397977020260e-03  7.8902744124183816e-03 -1.7320452827299332e-03 2.4656179800848802e-03  1.2531334189471130e-02 -5.2896486135769051e-04 2.3171464115972311e-03  1.6120442836962314e-02 5.8840883446361508e-04 2.6648009291639035e-03  2.2075482292625969e-02 -1.9193153054644662e-04 2.3418709498039545e-03  2.1709922246186439e-02 -1.6798172555225108e-03 1.8767746672430138e-03  1.0076455021727437e-02 -1.1038829458606219e-03 -5.3180341582501035e-04  4.0935338658075289e-03 -6.9509982299669046e-04 1.3636040957236560e-03  1.3062944383857536e-02 -1.4151330027747596e-03 1.9812012169741076e-04  1.7064237174265768e-02 -5.5446932112774769e-04 -4.3534194245487261e-04  1.5096986153878781e-02 -1.2041115106895855e-04 -2.0742146437329459e-03  8.3521062842848402e-03 -2.9670104604923936e-04 -3.7726111478805758e-03  1.4863681476245550e-03 4.4415043408919865e-05 -4.3335007423359025e-03  2.4849573808065563e-03 1.1406221860703358e-03 1.1389584622387599e-03  2.6770135875093214e-03 1.0143906636224745e-03 2.6271720432964568e-03  8.2221165637638427e-03 1.7871867547072855e-04 2.5214782593668637e-03  8.8705369376536752e-03 1.7332393024661465e-04 1.9382280427726229e-03  -1.7955462773905594e-03 5.2801634316274938e-04 -2.0677671400117156e-03  9.7915647083533855e-03 1.3851681661856054e-03 3.2537218122688318e-03  1.4322383222743403e-02 1.4797235369679051e-03 2.5113616082299878e-03  1.8913579191673455e-02 1.1970139807354647e-03 1.5150184962601102e-03  2.1062913061158435e-02 7.2348849448612999e-04 4.7727508289527430e-05  1.8956954677256711e-02 4.4946506888725497e-04 -8.3364972150917294e-04  1.2489796854305206e-02 4.0884362942260631e-04 -2.0626065120311018e-03  1.7032986277654181e-02 4.9193834752660377e-04 1.5016804164410345e-03  1.9624734245698754e-02 -2.2550926639979170e-04 1.2078921587813729e-03  2.1296879120266426e-02 -4.2132049042191059e-04 6.2312759800180043e-04  2.1524723595252135e-02 -6.6373827051458294e-04 -4.7482383323822660e-04  1.7343555783158340e-02 -2.5271225101833317e-04 -1.9171556528388069e-03  1.8862638891263654e-03 1.3735756058170245e-03 -6.1417394531353359e-04  -9.1784435947339757e-04 6.8914745501768714e-04 1.0900690374912368e-03  6.0021788929706587e-03 2.6129775464143188e-04 6.2072232151221647e-04  1.1311709456089192e-02 2.7831458536590337e-04 3.2130981288649058e-04  7.6867741374122200e-03 -5.8300216811320651e-04 1.0864203453523808e-04  1.2719396267947646e-02 -1.6487060306737245e-04 1.5294466440290157e-03  1.6589387000176318e-02 1.5305757250459089e-04 8.2638674600953249e-04  1.5562350112163637e-02 3.4593156585800949e-04 6.4969935141558110e-04  1.1599155369287451e-02 1.4130500065259832e-03 3.7200323172248526e-04  5.0260681481684843e-03 1.5709927044088683e-03 3.2225598824452939e-05  1.7628862663227760e-02 1.2147701159601241e-03 1.8703056569400196e-03  2.1207508640657999e-02 8.8519026986874161e-04 1.3551084434807285e-03  2.4243430761742773e-02 5.4895588327505056e-05 1.2319667693270729e-03  2.4508820542250443e-02 -6.9143977522444027e-04 8.5518136388850017e-04  2.0886232616702392e-02 -7.4125007043358588e-04 2.6557863287370232e-04  -9.0715259529856856e-03 6.2926721460556431e-04 4.5810517242115050e-03  1.8107165818705335e-03 -4.5614583307457203e-04 1.8903189443216280e-03  1.2005700459280231e-02 -1.0584658212624896e-03 -1.2691299420547850e-03  1.3667648770428359e-02 -1.3387183850002409e-03 -2.7557118789090715e-03  1.0415277560006665e-02 -2.1787039523385025e-03 -3.9137808698816489e-03  3.9696692546230608e-03 -3.4114476488342157e-03 -4.4569325831549846e-03  1.4591606652634332e-02 1.5358389569477576e-05 4.1571754473600066e-03  1.9445989880492672e-02 2.2965651304304941e-04 2.8859880583232004e-03  2.2685073056108954e-02 2.0496271803869230e-04 1.5553659514354501e-03  2.3898274378402345e-02 6.1999757376777196e-04 3.3058173995260520e-04  2.1926978699379578e-02 1.0464999003219572e-03 -1.8034480834517310e-03  1.6983541426347806e-02 2.4871195591306630e-04 -2.9845933312609828e-03  7.9125941164971108e-03 -1.3301660363986107e-03 1.5221266049404054e-03  1.3759710559347405e-02 -1.3468077607164891e-03 3.4782947484418076e-04  1.8594828450397383e-02 -8.0413647485992178e-04 -2.3697149453242412e-05  2.2155452239065263e-02 -9.5367470868148400e-04 -6.2120252874946560e-04  2.1020659000206249e-02 -8.8126953331001557e-04 -1.3820210386182136e-03  1.4811334690778808e-02 6.8466486906325374e-04 -2.7486300285145294e-03  4.1109475743588472e-03 -2.4013281195624651e-04 3.2430508148728852e-03  1.2422890540036735e-02 -1.8458801625501569e-04 2.2605867148053262e-04  1.6048532047172742e-02 -4.1751464701996101e-04 -3.0420734068654313e-04  1.7110267986583307e-02 4.1688264709124472e-04 -2.3862323430226217e-04  1.4248801264597540e-02 1.3987003077473282e-03 -1.1848956402982546e-03  6.9484385756916093e-03 1.2386997186416863e-03 -2.5743734459204109e-03  6.7350348235974680e-03 -1.9901372624692337e-03 8.8638483842775045e-04  4.7113113402409415e-03 -1.0241522747578143e-03 1.6800523721719964e-03  1.2068084734248613e-02 -1.1831587805397545e-03 7.2307183904665165e-04  1.7194287099224052e-02 -1.7363770993582381e-03 -9.6707315046888349e-04  1.4612129202307467e-02 -1.6057307729696072e-03 -3.3797969971740920e-03  1.4481500945071680e-02 -1.2189515243291300e-03 3.1182987765563516e-03  2.1536345749739859e-02 -1.8326964190782942e-03 1.7367290864571026e-03  2.5455463118610418e-02 -2.2058603722091676e-03 8.7207019045251722e-04  2.6740807574048332e-02 -2.3932148440784047e-03 6.3713529030122332e-04  2.3987471088847818e-02 -2.9252794838894283e-03 3.5882798815931407e-04  1.5378296578689776e-02 -1.4153937106855415e-03 -1.9054782088894369e-03  -2.7294625085174436e-03 -1.5174055627701841e-03 1.203518